+ 0.1 1 2 cbr 1000 ------- 2 1.0 3.1 0 0
- 0.1 1 2 cbr 1000 ------- 2 1.0 3.1 0 0
+ 0.108 1 2 cbr 1000 ------- 2 1.0 3.1 1 1
- 0.108 1 2 cbr 1000 ------- 2 1.0 3.1 1 1
r 0.114 1 2 cbr 1000 ------- 2 1.0 3.1 0 0
+ 0.114 2 3 cbr 1000 ------- 2 1.0 3.1 0 0
- 0.114 2 3 cbr 1000 ------- 2 1.0 3.1 0 0
+ 0.116 1 2 cbr 1000 ------- 2 1.0 3.1 2 2
- 0.116 1 2 cbr 1000 ------- 2 1.0 3.1 2 2
r 0.122 1 2 cbr 1000 ------- 2 1.0 3.1 1 1
+ 0.122 2 3 cbr 1000 ------- 2 1.0 3.1 1 1
+ 0.124 1 2 cbr 1000 ------- 2 1.0 3.1 3 3
- 0.124 1 2 cbr 1000 ------- 2 1.0 3.1 3 3
- 0.129625 2 3 cbr 1000 ------- 2 1.0 3.1 1 1
r 0.13 1 2 cbr 1000 ------- 2 1.0 3.1 2 2
+ 0.13 2 3 cbr 1000 ------- 2 1.0 3.1 2 2
+ 0.132 1 2 cbr 1000 ------- 2 1.0 3.1 4 4
- 0.132 1 2 cbr 1000 ------- 2 1.0 3.1 4 4
r 0.138 1 2 cbr 1000 ------- 2 1.0 3.1 3 3
+ 0.138 2 3 cbr 1000 ------- 2 1.0 3.1 3 3
+ 0.14 1 2 cbr 1000 ------- 2 1.0 3.1 5 5
- 0.14 1 2 cbr 1000 ------- 2 1.0 3.1 5 5
- 0.14525 2 3 cbr 1000 ------- 2 1.0 3.1 2 2
r 0.146 1 2 cbr 1000 ------- 2 1.0 3.1 4 4
+ 0.146 2 3 cbr 1000 ------- 2 1.0 3.1 4 4
+ 0.148 1 2 cbr 1000 ------- 2 1.0 3.1 6 6
- 0.148 1 2 cbr 1000 ------- 2 1.0 3.1 6 6
r 0.149625 2 3 cbr 1000 ------- 2 1.0 3.1 0 0
r 0.154 1 2 cbr 1000 ------- 2 1.0 3.1 5 5
+ 0.154 2 3 cbr 1000 ------- 2 1.0 3.1 5 5
+ 0.156 1 2 cbr 1000 ------- 2 1.0 3.1 7 7
- 0.156 1 2 cbr 1000 ------- 2 1.0 3.1 7 7
- 0.160875 2 3 cbr 1000 ------- 2 1.0 3.1 3 3
r 0.162 1 2 cbr 1000 ------- 2 1.0 3.1 6 6
+ 0.162 2 3 cbr 1000 ------- 2 1.0 3.1 6 6
+ 0.164 1 2 cbr 1000 ------- 2 1.0 3.1 8 8
- 0.164 1 2 cbr 1000 ------- 2 1.0 3.1 8 8
r 0.16525 2 3 cbr 1000 ------- 2 1.0 3.1 1 1
r 0.17 1 2 cbr 1000 ------- 2 1.0 3.1 7 7
+ 0.17 2 3 cbr 1000 ------- 2 1.0 3.1 7 7
+ 0.172 1 2 cbr 1000 ------- 2 1.0 3.1 9 9
- 0.172 1 2 cbr 1000 ------- 2 1.0 3.1 9 9
- 0.1765 2 3 cbr 1000 ------- 2 1.0 3.1 4 4
r 0.178 1 2 cbr 1000 ------- 2 1.0 3.1 8 8
+ 0.178 2 3 cbr 1000 ------- 2 1.0 3.1 8 8
+ 0.18 1 2 cbr 1000 ------- 2 1.0 3.1 10 10
- 0.18 1 2 cbr 1000 ------- 2 1.0 3.1 10 10
r 0.180875 2 3 cbr 1000 ------- 2 1.0 3.1 2 2
r 0.186 1 2 cbr 1000 ------- 2 1.0 3.1 9 9
+ 0.186 2 3 cbr 1000 ------- 2 1.0 3.1 9 9
+ 0.188 1 2 cbr 1000 ------- 2 1.0 3.1 11 11
- 0.188 1 2 cbr 1000 ------- 2 1.0 3.1 11 11
- 0.192125 2 3 cbr 1000 ------- 2 1.0 3.1 5 5
r 0.194 1 2 cbr 1000 ------- 2 1.0 3.1 10 10
+ 0.194 2 3 cbr 1000 ------- 2 1.0 3.1 10 10
+ 0.196 1 2 cbr 1000 ------- 2 1.0 3.1 12 12
- 0.196 1 2 cbr 1000 ------- 2 1.0 3.1 12 12
r 0.1965 2 3 cbr 1000 ------- 2 1.0 3.1 3 3
r 0.202 1 2 cbr 1000 ------- 2 1.0 3.1 11 11
+ 0.202 2 3 cbr 1000 ------- 2 1.0 3.1 11 11
+ 0.204 1 2 cbr 1000 ------- 2 1.0 3.1 13 13
- 0.204 1 2 cbr 1000 ------- 2 1.0 3.1 13 13
- 0.20775 2 3 cbr 1000 ------- 2 1.0 3.1 6 6
r 0.21 1 2 cbr 1000 ------- 2 1.0 3.1 12 12
+ 0.21 2 3 cbr 1000 ------- 2 1.0 3.1 12 12
+ 0.212 1 2 cbr 1000 ------- 2 1.0 3.1 14 14
- 0.212 1 2 cbr 1000 ------- 2 1.0 3.1 14 14
r 0.212125 2 3 cbr 1000 ------- 2 1.0 3.1 4 4
r 0.218 1 2 cbr 1000 ------- 2 1.0 3.1 13 13
+ 0.218 2 3 cbr 1000 ------- 2 1.0 3.1 13 13
+ 0.22 1 2 cbr 1000 ------- 2 1.0 3.1 15 15
- 0.22 1 2 cbr 1000 ------- 2 1.0 3.1 15 15
- 0.223375 2 3 cbr 1000 ------- 2 1.0 3.1 7 7
r 0.226 1 2 cbr 1000 ------- 2 1.0 3.1 14 14
+ 0.226 2 3 cbr 1000 ------- 2 1.0 3.1 14 14
r 0.22775 2 3 cbr 1000 ------- 2 1.0 3.1 5 5
+ 0.228 1 2 cbr 1000 ------- 2 1.0 3.1 16 16
- 0.228 1 2 cbr 1000 ------- 2 1.0 3.1 16 16
r 0.234 1 2 cbr 1000 ------- 2 1.0 3.1 15 15
+ 0.234 2 3 cbr 1000 ------- 2 1.0 3.1 15 15
+ 0.236 1 2 cbr 1000 ------- 2 1.0 3.1 17 17
- 0.236 1 2 cbr 1000 ------- 2 1.0 3.1 17 17
- 0.239 2 3 cbr 1000 ------- 2 1.0 3.1 8 8
r 0.242 1 2 cbr 1000 ------- 2 1.0 3.1 16 16
+ 0.242 2 3 cbr 1000 ------- 2 1.0 3.1 16 16
r 0.243375 2 3 cbr 1000 ------- 2 1.0 3.1 6 6
+ 0.244 1 2 cbr 1000 ------- 2 1.0 3.1 18 18
- 0.244 1 2 cbr 1000 ------- 2 1.0 3.1 18 18
r 0.25 1 2 cbr 1000 ------- 2 1.0 3.1 17 17
+ 0.25 2 3 cbr 1000 ------- 2 1.0 3.1 17 17
+ 0.252 1 2 cbr 1000 ------- 2 1.0 3.1 19 19
- 0.252 1 2 cbr 1000 ------- 2 1.0 3.1 19 19
- 0.254625 2 3 cbr 1000 ------- 2 1.0 3.1 9 9
r 0.258 1 2 cbr 1000 ------- 2 1.0 3.1 18 18
+ 0.258 2 3 cbr 1000 ------- 2 1.0 3.1 18 18
r 0.259 2 3 cbr 1000 ------- 2 1.0 3.1 7 7
+ 0.26 1 2 cbr 1000 ------- 2 1.0 3.1 20 20
- 0.26 1 2 cbr 1000 ------- 2 1.0 3.1 20 20
r 0.266 1 2 cbr 1000 ------- 2 1.0 3.1 19 19
+ 0.266 2 3 cbr 1000 ------- 2 1.0 3.1 19 19
d 0.266 2 3 cbr 1000 ------- 2 1.0 3.1 19 19
+ 0.268 1 2 cbr 1000 ------- 2 1.0 3.1 21 21
- 0.268 1 2 cbr 1000 ------- 2 1.0 3.1 21 21
- 0.27025 2 3 cbr 1000 ------- 2 1.0 3.1 10 10
r 0.274 1 2 cbr 1000 ------- 2 1.0 3.1 20 20
+ 0.274 2 3 cbr 1000 ------- 2 1.0 3.1 20 20
r 0.274625 2 3 cbr 1000 ------- 2 1.0 3.1 8 8
+ 0.276 1 2 cbr 1000 ------- 2 1.0 3.1 22 22
- 0.276 1 2 cbr 1000 ------- 2 1.0 3.1 22 22
r 0.282 1 2 cbr 1000 ------- 2 1.0 3.1 21 21
+ 0.282 2 3 cbr 1000 ------- 2 1.0 3.1 21 21
d 0.282 2 3 cbr 1000 ------- 2 1.0 3.1 21 21
+ 0.284 1 2 cbr 1000 ------- 2 1.0 3.1 23 23
- 0.284 1 2 cbr 1000 ------- 2 1.0 3.1 23 23
- 0.285875 2 3 cbr 1000 ------- 2 1.0 3.1 11 11
r 0.29 1 2 cbr 1000 ------- 2 1.0 3.1 22 22
+ 0.29 2 3 cbr 1000 ------- 2 1.0 3.1 22 22
r 0.29025 2 3 cbr 1000 ------- 2 1.0 3.1 9 9
+ 0.292 1 2 cbr 1000 ------- 2 1.0 3.1 24 24
- 0.292 1 2 cbr 1000 ------- 2 1.0 3.1 24 24
r 0.298 1 2 cbr 1000 ------- 2 1.0 3.1 23 23
+ 0.298 2 3 cbr 1000 ------- 2 1.0 3.1 23 23
d 0.298 2 3 cbr 1000 ------- 2 1.0 3.1 23 23
+ 0.3 1 2 cbr 1000 ------- 2 1.0 3.1 25 25
- 0.3 1 2 cbr 1000 ------- 2 1.0 3.1 25 25
- 0.3015 2 3 cbr 1000 ------- 2 1.0 3.1 12 12
r 0.305875 2 3 cbr 1000 ------- 2 1.0 3.1 10 10
r 0.306 1 2 cbr 1000 ------- 2 1.0 3.1 24 24
+ 0.306 2 3 cbr 1000 ------- 2 1.0 3.1 24 24
+ 0.308 1 2 cbr 1000 ------- 2 1.0 3.1 26 26
- 0.308 1 2 cbr 1000 ------- 2 1.0 3.1 26 26
r 0.314 1 2 cbr 1000 ------- 2 1.0 3.1 25 25
+ 0.314 2 3 cbr 1000 ------- 2 1.0 3.1 25 25
d 0.314 2 3 cbr 1000 ------- 2 1.0 3.1 25 25
+ 0.316 1 2 cbr 1000 ------- 2 1.0 3.1 27 27
- 0.316 1 2 cbr 1000 ------- 2 1.0 3.1 27 27
- 0.317125 2 3 cbr 1000 ------- 2 1.0 3.1 13 13
r 0.3215 2 3 cbr 1000 ------- 2 1.0 3.1 11 11
r 0.322 1 2 cbr 1000 ------- 2 1.0 3.1 26 26
+ 0.322 2 3 cbr 1000 ------- 2 1.0 3.1 26 26
+ 0.324 1 2 cbr 1000 ------- 2 1.0 3.1 28 28
- 0.324 1 2 cbr 1000 ------- 2 1.0 3.1 28 28
r 0.33 1 2 cbr 1000 ------- 2 1.0 3.1 27 27
+ 0.33 2 3 cbr 1000 ------- 2 1.0 3.1 27 27
d 0.33 2 3 cbr 1000 ------- 2 1.0 3.1 27 27
+ 0.332 1 2 cbr 1000 ------- 2 1.0 3.1 29 29
- 0.332 1 2 cbr 1000 ------- 2 1.0 3.1 29 29
- 0.33275 2 3 cbr 1000 ------- 2 1.0 3.1 14 14
r 0.337125 2 3 cbr 1000 ------- 2 1.0 3.1 12 12
r 0.338 1 2 cbr 1000 ------- 2 1.0 3.1 28 28
+ 0.338 2 3 cbr 1000 ------- 2 1.0 3.1 28 28
+ 0.34 1 2 cbr 1000 ------- 2 1.0 3.1 30 30
- 0.34 1 2 cbr 1000 ------- 2 1.0 3.1 30 30
r 0.346 1 2 cbr 1000 ------- 2 1.0 3.1 29 29
+ 0.346 2 3 cbr 1000 ------- 2 1.0 3.1 29 29
d 0.346 2 3 cbr 1000 ------- 2 1.0 3.1 29 29
+ 0.348 1 2 cbr 1000 ------- 2 1.0 3.1 31 31
- 0.348 1 2 cbr 1000 ------- 2 1.0 3.1 31 31
- 0.348375 2 3 cbr 1000 ------- 2 1.0 3.1 15 15
r 0.35275 2 3 cbr 1000 ------- 2 1.0 3.1 13 13
r 0.354 1 2 cbr 1000 ------- 2 1.0 3.1 30 30
+ 0.354 2 3 cbr 1000 ------- 2 1.0 3.1 30 30
+ 0.356 1 2 cbr 1000 ------- 2 1.0 3.1 32 32
- 0.356 1 2 cbr 1000 ------- 2 1.0 3.1 32 32
r 0.362 1 2 cbr 1000 ------- 2 1.0 3.1 31 31
+ 0.362 2 3 cbr 1000 ------- 2 1.0 3.1 31 31
d 0.362 2 3 cbr 1000 ------- 2 1.0 3.1 31 31
- 0.364 2 3 cbr 1000 ------- 2 1.0 3.1 16 16
+ 0.364 1 2 cbr 1000 ------- 2 1.0 3.1 33 33
- 0.364 1 2 cbr 1000 ------- 2 1.0 3.1 33 33
r 0.368375 2 3 cbr 1000 ------- 2 1.0 3.1 14 14
r 0.37 1 2 cbr 1000 ------- 2 1.0 3.1 32 32
+ 0.37 2 3 cbr 1000 ------- 2 1.0 3.1 32 32
+ 0.372 1 2 cbr 1000 ------- 2 1.0 3.1 34 34
- 0.372 1 2 cbr 1000 ------- 2 1.0 3.1 34 34
r 0.378 1 2 cbr 1000 ------- 2 1.0 3.1 33 33
+ 0.378 2 3 cbr 1000 ------- 2 1.0 3.1 33 33
d 0.378 2 3 cbr 1000 ------- 2 1.0 3.1 33 33
- 0.379625 2 3 cbr 1000 ------- 2 1.0 3.1 17 17
+ 0.38 1 2 cbr 1000 ------- 2 1.0 3.1 35 35
- 0.38 1 2 cbr 1000 ------- 2 1.0 3.1 35 35
r 0.384 2 3 cbr 1000 ------- 2 1.0 3.1 15 15
r 0.386 1 2 cbr 1000 ------- 2 1.0 3.1 34 34
+ 0.386 2 3 cbr 1000 ------- 2 1.0 3.1 34 34
+ 0.388 1 2 cbr 1000 ------- 2 1.0 3.1 36 36
- 0.388 1 2 cbr 1000 ------- 2 1.0 3.1 36 36
r 0.394 1 2 cbr 1000 ------- 2 1.0 3.1 35 35
+ 0.394 2 3 cbr 1000 ------- 2 1.0 3.1 35 35
d 0.394 2 3 cbr 1000 ------- 2 1.0 3.1 35 35
- 0.39525 2 3 cbr 1000 ------- 2 1.0 3.1 18 18
+ 0.396 1 2 cbr 1000 ------- 2 1.0 3.1 37 37
- 0.396 1 2 cbr 1000 ------- 2 1.0 3.1 37 37
r 0.399625 2 3 cbr 1000 ------- 2 1.0 3.1 16 16
r 0.402 1 2 cbr 1000 ------- 2 1.0 3.1 36 36
+ 0.402 2 3 cbr 1000 ------- 2 1.0 3.1 36 36
+ 0.404 1 2 cbr 1000 ------- 2 1.0 3.1 38 38
- 0.404 1 2 cbr 1000 ------- 2 1.0 3.1 38 38
r 0.41 1 2 cbr 1000 ------- 2 1.0 3.1 37 37
+ 0.41 2 3 cbr 1000 ------- 2 1.0 3.1 37 37
d 0.41 2 3 cbr 1000 ------- 2 1.0 3.1 37 37
- 0.410875 2 3 cbr 1000 ------- 2 1.0 3.1 20 20
+ 0.412 1 2 cbr 1000 ------- 2 1.0 3.1 39 39
- 0.412 1 2 cbr 1000 ------- 2 1.0 3.1 39 39
r 0.41525 2 3 cbr 1000 ------- 2 1.0 3.1 17 17
r 0.418 1 2 cbr 1000 ------- 2 1.0 3.1 38 38
+ 0.418 2 3 cbr 1000 ------- 2 1.0 3.1 38 38
+ 0.42 1 2 cbr 1000 ------- 2 1.0 3.1 40 40
- 0.42 1 2 cbr 1000 ------- 2 1.0 3.1 40 40
r 0.426 1 2 cbr 1000 ------- 2 1.0 3.1 39 39
+ 0.426 2 3 cbr 1000 ------- 2 1.0 3.1 39 39
d 0.426 2 3 cbr 1000 ------- 2 1.0 3.1 39 39
- 0.4265 2 3 cbr 1000 ------- 2 1.0 3.1 22 22
+ 0.428 1 2 cbr 1000 ------- 2 1.0 3.1 41 41
- 0.428 1 2 cbr 1000 ------- 2 1.0 3.1 41 41
r 0.430875 2 3 cbr 1000 ------- 2 1.0 3.1 18 18
r 0.434 1 2 cbr 1000 ------- 2 1.0 3.1 40 40
+ 0.434 2 3 cbr 1000 ------- 2 1.0 3.1 40 40
+ 0.436 1 2 cbr 1000 ------- 2 1.0 3.1 42 42
- 0.436 1 2 cbr 1000 ------- 2 1.0 3.1 42 42
r 0.442 1 2 cbr 1000 ------- 2 1.0 3.1 41 41
+ 0.442 2 3 cbr 1000 ------- 2 1.0 3.1 41 41
d 0.442 2 3 cbr 1000 ------- 2 1.0 3.1 41 41
- 0.442125 2 3 cbr 1000 ------- 2 1.0 3.1 24 24
+ 0.444 1 2 cbr 1000 ------- 2 1.0 3.1 43 43
- 0.444 1 2 cbr 1000 ------- 2 1.0 3.1 43 43
r 0.4465 2 3 cbr 1000 ------- 2 1.0 3.1 20 20
r 0.45 1 2 cbr 1000 ------- 2 1.0 3.1 42 42
+ 0.45 2 3 cbr 1000 ------- 2 1.0 3.1 42 42
+ 0.452 1 2 cbr 1000 ------- 2 1.0 3.1 44 44
- 0.452 1 2 cbr 1000 ------- 2 1.0 3.1 44 44
- 0.45775 2 3 cbr 1000 ------- 2 1.0 3.1 26 26
r 0.458 1 2 cbr 1000 ------- 2 1.0 3.1 43 43
+ 0.458 2 3 cbr 1000 ------- 2 1.0 3.1 43 43
+ 0.46 1 2 cbr 1000 ------- 2 1.0 3.1 45 45
- 0.46 1 2 cbr 1000 ------- 2 1.0 3.1 45 45
r 0.462125 2 3 cbr 1000 ------- 2 1.0 3.1 22 22
r 0.466 1 2 cbr 1000 ------- 2 1.0 3.1 44 44
+ 0.466 2 3 cbr 1000 ------- 2 1.0 3.1 44 44
d 0.466 2 3 cbr 1000 ------- 2 1.0 3.1 44 44
+ 0.468 1 2 cbr 1000 ------- 2 1.0 3.1 46 46
- 0.468 1 2 cbr 1000 ------- 2 1.0 3.1 46 46
- 0.473375 2 3 cbr 1000 ------- 2 1.0 3.1 28 28
r 0.474 1 2 cbr 1000 ------- 2 1.0 3.1 45 45
+ 0.474 2 3 cbr 1000 ------- 2 1.0 3.1 45 45
+ 0.476 1 2 cbr 1000 ------- 2 1.0 3.1 47 47
- 0.476 1 2 cbr 1000 ------- 2 1.0 3.1 47 47
r 0.47775 2 3 cbr 1000 ------- 2 1.0 3.1 24 24
r 0.482 1 2 cbr 1000 ------- 2 1.0 3.1 46 46
+ 0.482 2 3 cbr 1000 ------- 2 1.0 3.1 46 46
d 0.482 2 3 cbr 1000 ------- 2 1.0 3.1 46 46
+ 0.484 1 2 cbr 1000 ------- 2 1.0 3.1 48 48
- 0.484 1 2 cbr 1000 ------- 2 1.0 3.1 48 48
- 0.489 2 3 cbr 1000 ------- 2 1.0 3.1 30 30
r 0.49 1 2 cbr 1000 ------- 2 1.0 3.1 47 47
+ 0.49 2 3 cbr 1000 ------- 2 1.0 3.1 47 47
+ 0.492 1 2 cbr 1000 ------- 2 1.0 3.1 49 49
- 0.492 1 2 cbr 1000 ------- 2 1.0 3.1 49 49
r 0.493375 2 3 cbr 1000 ------- 2 1.0 3.1 26 26
r 0.498 1 2 cbr 1000 ------- 2 1.0 3.1 48 48
+ 0.498 2 3 cbr 1000 ------- 2 1.0 3.1 48 48
d 0.498 2 3 cbr 1000 ------- 2 1.0 3.1 48 48
+ 0.5 0 2 tcp 40 ------- 1 0.0 3.0 0 50
- 0.5 0 2 tcp 40 ------- 1 0.0 3.0 0 50
+ 0.5 1 2 cbr 1000 ------- 2 1.0 3.1 50 51
- 0.5 1 2 cbr 1000 ------- 2 1.0 3.1 50 51
- 0.504625 2 3 cbr 1000 ------- 2 1.0 3.1 32 32
r 0.506 1 2 cbr 1000 ------- 2 1.0 3.1 49 49
+ 0.506 2 3 cbr 1000 ------- 2 1.0 3.1 49 49
+ 0.508 1 2 cbr 1000 ------- 2 1.0 3.1 51 52
- 0.508 1 2 cbr 1000 ------- 2 1.0 3.1 51 52
r 0.509 2 3 cbr 1000 ------- 2 1.0 3.1 28 28
r 0.51016 0 2 tcp 40 ------- 1 0.0 3.0 0 50
+ 0.51016 2 3 tcp 40 ------- 1 0.0 3.0 0 50
d 0.51016 2 3 tcp 40 ------- 1 0.0 3.0 0 50
r 0.514 1 2 cbr 1000 ------- 2 1.0 3.1 50 51
+ 0.514 2 3 cbr 1000 ------- 2 1.0 3.1 50 51
d 0.514 2 3 cbr 1000 ------- 2 1.0 3.1 50 51
+ 0.516 1 2 cbr 1000 ------- 2 1.0 3.1 52 53
- 0.516 1 2 cbr 1000 ------- 2 1.0 3.1 52 53
- 0.52025 2 3 cbr 1000 ------- 2 1.0 3.1 34 34
r 0.522 1 2 cbr 1000 ------- 2 1.0 3.1 51 52
+ 0.522 2 3 cbr 1000 ------- 2 1.0 3.1 51 52
+ 0.524 1 2 cbr 1000 ------- 2 1.0 3.1 53 54
- 0.524 1 2 cbr 1000 ------- 2 1.0 3.1 53 54
r 0.524625 2 3 cbr 1000 ------- 2 1.0 3.1 30 30
r 0.53 1 2 cbr 1000 ------- 2 1.0 3.1 52 53
+ 0.53 2 3 cbr 1000 ------- 2 1.0 3.1 52 53
d 0.53 2 3 cbr 1000 ------- 2 1.0 3.1 52 53
+ 0.532 1 2 cbr 1000 ------- 2 1.0 3.1 54 55
- 0.532 1 2 cbr 1000 ------- 2 1.0 3.1 54 55
- 0.535875 2 3 cbr 1000 ------- 2 1.0 3.1 36 36
r 0.538 1 2 cbr 1000 ------- 2 1.0 3.1 53 54
+ 0.538 2 3 cbr 1000 ------- 2 1.0 3.1 53 54
+ 0.54 1 2 cbr 1000 ------- 2 1.0 3.1 55 56
- 0.54 1 2 cbr 1000 ------- 2 1.0 3.1 55 56
r 0.54025 2 3 cbr 1000 ------- 2 1.0 3.1 32 32
r 0.546 1 2 cbr 1000 ------- 2 1.0 3.1 54 55
+ 0.546 2 3 cbr 1000 ------- 2 1.0 3.1 54 55
d 0.546 2 3 cbr 1000 ------- 2 1.0 3.1 54 55
+ 0.548 1 2 cbr 1000 ------- 2 1.0 3.1 56 57
- 0.548 1 2 cbr 1000 ------- 2 1.0 3.1 56 57
- 0.5515 2 3 cbr 1000 ------- 2 1.0 3.1 38 38
r 0.554 1 2 cbr 1000 ------- 2 1.0 3.1 55 56
+ 0.554 2 3 cbr 1000 ------- 2 1.0 3.1 55 56
r 0.555875 2 3 cbr 1000 ------- 2 1.0 3.1 34 34
+ 0.556 1 2 cbr 1000 ------- 2 1.0 3.1 57 58
- 0.556 1 2 cbr 1000 ------- 2 1.0 3.1 57 58
r 0.562 1 2 cbr 1000 ------- 2 1.0 3.1 56 57
+ 0.562 2 3 cbr 1000 ------- 2 1.0 3.1 56 57
d 0.562 2 3 cbr 1000 ------- 2 1.0 3.1 56 57
+ 0.564 1 2 cbr 1000 ------- 2 1.0 3.1 58 59
- 0.564 1 2 cbr 1000 ------- 2 1.0 3.1 58 59
- 0.567125 2 3 cbr 1000 ------- 2 1.0 3.1 40 40
r 0.57 1 2 cbr 1000 ------- 2 1.0 3.1 57 58
+ 0.57 2 3 cbr 1000 ------- 2 1.0 3.1 57 58
r 0.5715 2 3 cbr 1000 ------- 2 1.0 3.1 36 36
+ 0.572 1 2 cbr 1000 ------- 2 1.0 3.1 59 60
- 0.572 1 2 cbr 1000 ------- 2 1.0 3.1 59 60
r 0.578 1 2 cbr 1000 ------- 2 1.0 3.1 58 59
+ 0.578 2 3 cbr 1000 ------- 2 1.0 3.1 58 59
d 0.578 2 3 cbr 1000 ------- 2 1.0 3.1 58 59
+ 0.58 1 2 cbr 1000 ------- 2 1.0 3.1 60 61
- 0.58 1 2 cbr 1000 ------- 2 1.0 3.1 60 61
- 0.58275 2 3 cbr 1000 ------- 2 1.0 3.1 42 42
r 0.586 1 2 cbr 1000 ------- 2 1.0 3.1 59 60
+ 0.586 2 3 cbr 1000 ------- 2 1.0 3.1 59 60
r 0.587125 2 3 cbr 1000 ------- 2 1.0 3.1 38 38
+ 0.588 1 2 cbr 1000 ------- 2 1.0 3.1 61 62
- 0.588 1 2 cbr 1000 ------- 2 1.0 3.1 61 62
r 0.594 1 2 cbr 1000 ------- 2 1.0 3.1 60 61
+ 0.594 2 3 cbr 1000 ------- 2 1.0 3.1 60 61
d 0.594 2 3 cbr 1000 ------- 2 1.0 3.1 60 61
+ 0.596 1 2 cbr 1000 ------- 2 1.0 3.1 62 63
- 0.596 1 2 cbr 1000 ------- 2 1.0 3.1 62 63
- 0.598375 2 3 cbr 1000 ------- 2 1.0 3.1 43 43
r 0.602 1 2 cbr 1000 ------- 2 1.0 3.1 61 62
+ 0.602 2 3 cbr 1000 ------- 2 1.0 3.1 61 62
r 0.60275 2 3 cbr 1000 ------- 2 1.0 3.1 40 40
+ 0.604 1 2 cbr 1000 ------- 2 1.0 3.1 63 64
- 0.604 1 2 cbr 1000 ------- 2 1.0 3.1 63 64
r 0.61 1 2 cbr 1000 ------- 2 1.0 3.1 62 63
+ 0.61 2 3 cbr 1000 ------- 2 1.0 3.1 62 63
d 0.61 2 3 cbr 1000 ------- 2 1.0 3.1 62 63
+ 0.612 1 2 cbr 1000 ------- 2 1.0 3.1 64 65
- 0.612 1 2 cbr 1000 ------- 2 1.0 3.1 64 65
- 0.614 2 3 cbr 1000 ------- 2 1.0 3.1 45 45
r 0.618 1 2 cbr 1000 ------- 2 1.0 3.1 63 64
+ 0.618 2 3 cbr 1000 ------- 2 1.0 3.1 63 64
r 0.618375 2 3 cbr 1000 ------- 2 1.0 3.1 42 42
+ 0.62 1 2 cbr 1000 ------- 2 1.0 3.1 65 66
- 0.62 1 2 cbr 1000 ------- 2 1.0 3.1 65 66
r 0.626 1 2 cbr 1000 ------- 2 1.0 3.1 64 65
+ 0.626 2 3 cbr 1000 ------- 2 1.0 3.1 64 65
d 0.626 2 3 cbr 1000 ------- 2 1.0 3.1 64 65
+ 0.628 1 2 cbr 1000 ------- 2 1.0 3.1 66 67
- 0.628 1 2 cbr 1000 ------- 2 1.0 3.1 66 67
- 0.629625 2 3 cbr 1000 ------- 2 1.0 3.1 47 47
r 0.634 2 3 cbr 1000 ------- 2 1.0 3.1 43 43
r 0.634 1 2 cbr 1000 ------- 2 1.0 3.1 65 66
+ 0.634 2 3 cbr 1000 ------- 2 1.0 3.1 65 66
+ 0.636 1 2 cbr 1000 ------- 2 1.0 3.1 67 68
- 0.636 1 2 cbr 1000 ------- 2 1.0 3.1 67 68
r 0.642 1 2 cbr 1000 ------- 2 1.0 3.1 66 67
+ 0.642 2 3 cbr 1000 ------- 2 1.0 3.1 66 67
d 0.642 2 3 cbr 1000 ------- 2 1.0 3.1 66 67
+ 0.644 1 2 cbr 1000 ------- 2 1.0 3.1 68 69
- 0.644 1 2 cbr 1000 ------- 2 1.0 3.1 68 69
- 0.64525 2 3 cbr 1000 ------- 2 1.0 3.1 49 49
r 0.649625 2 3 cbr 1000 ------- 2 1.0 3.1 45 45
r 0.65 1 2 cbr 1000 ------- 2 1.0 3.1 67 68
+ 0.65 2 3 cbr 1000 ------- 2 1.0 3.1 67 68
+ 0.652 1 2 cbr 1000 ------- 2 1.0 3.1 69 70
- 0.652 1 2 cbr 1000 ------- 2 1.0 3.1 69 70
r 0.658 1 2 cbr 1000 ------- 2 1.0 3.1 68 69
+ 0.658 2 3 cbr 1000 ------- 2 1.0 3.1 68 69
d 0.658 2 3 cbr 1000 ------- 2 1.0 3.1 68 69
+ 0.66 1 2 cbr 1000 ------- 2 1.0 3.1 70 71
- 0.66 1 2 cbr 1000 ------- 2 1.0 3.1 70 71
- 0.660875 2 3 cbr 1000 ------- 2 1.0 3.1 51 52
r 0.66525 2 3 cbr 1000 ------- 2 1.0 3.1 47 47
r 0.666 1 2 cbr 1000 ------- 2 1.0 3.1 69 70
+ 0.666 2 3 cbr 1000 ------- 2 1.0 3.1 69 70
+ 0.668 1 2 cbr 1000 ------- 2 1.0 3.1 71 72
- 0.668 1 2 cbr 1000 ------- 2 1.0 3.1 71 72
r 0.674 1 2 cbr 1000 ------- 2 1.0 3.1 70 71
+ 0.674 2 3 cbr 1000 ------- 2 1.0 3.1 70 71
d 0.674 2 3 cbr 1000 ------- 2 1.0 3.1 70 71
+ 0.676 1 2 cbr 1000 ------- 2 1.0 3.1 72 73
- 0.676 1 2 cbr 1000 ------- 2 1.0 3.1 72 73
- 0.6765 2 3 cbr 1000 ------- 2 1.0 3.1 53 54
r 0.680875 2 3 cbr 1000 ------- 2 1.0 3.1 49 49
r 0.682 1 2 cbr 1000 ------- 2 1.0 3.1 71 72
+ 0.682 2 3 cbr 1000 ------- 2 1.0 3.1 71 72
+ 0.684 1 2 cbr 1000 ------- 2 1.0 3.1 73 74
- 0.684 1 2 cbr 1000 ------- 2 1.0 3.1 73 74
r 0.69 1 2 cbr 1000 ------- 2 1.0 3.1 72 73
+ 0.69 2 3 cbr 1000 ------- 2 1.0 3.1 72 73
d 0.69 2 3 cbr 1000 ------- 2 1.0 3.1 72 73
+ 0.692 1 2 cbr 1000 ------- 2 1.0 3.1 74 75
- 0.692 1 2 cbr 1000 ------- 2 1.0 3.1 74 75
- 0.692125 2 3 cbr 1000 ------- 2 1.0 3.1 55 56
r 0.6965 2 3 cbr 1000 ------- 2 1.0 3.1 51 52
r 0.698 1 2 cbr 1000 ------- 2 1.0 3.1 73 74
+ 0.698 2 3 cbr 1000 ------- 2 1.0 3.1 73 74
+ 0.7 1 2 cbr 1000 ------- 2 1.0 3.1 75 76
- 0.7 1 2 cbr 1000 ------- 2 1.0 3.1 75 76
r 0.706 1 2 cbr 1000 ------- 2 1.0 3.1 74 75
+ 0.706 2 3 cbr 1000 ------- 2 1.0 3.1 74 75
d 0.706 2 3 cbr 1000 ------- 2 1.0 3.1 74 75
- 0.70775 2 3 cbr 1000 ------- 2 1.0 3.1 57 58
+ 0.708 1 2 cbr 1000 ------- 2 1.0 3.1 76 77
- 0.708 1 2 cbr 1000 ------- 2 1.0 3.1 76 77
r 0.712125 2 3 cbr 1000 ------- 2 1.0 3.1 53 54
r 0.714 1 2 cbr 1000 ------- 2 1.0 3.1 75 76
+ 0.714 2 3 cbr 1000 ------- 2 1.0 3.1 75 76
+ 0.716 1 2 cbr 1000 ------- 2 1.0 3.1 77 78
- 0.716 1 2 cbr 1000 ------- 2 1.0 3.1 77 78
r 0.722 1 2 cbr 1000 ------- 2 1.0 3.1 76 77
+ 0.722 2 3 cbr 1000 ------- 2 1.0 3.1 76 77
d 0.722 2 3 cbr 1000 ------- 2 1.0 3.1 76 77
- 0.723375 2 3 cbr 1000 ------- 2 1.0 3.1 59 60
+ 0.724 1 2 cbr 1000 ------- 2 1.0 3.1 78 79
- 0.724 1 2 cbr 1000 ------- 2 1.0 3.1 78 79
r 0.72775 2 3 cbr 1000 ------- 2 1.0 3.1 55 56
r 0.73 1 2 cbr 1000 ------- 2 1.0 3.1 77 78
+ 0.73 2 3 cbr 1000 ------- 2 1.0 3.1 77 78
+ 0.732 1 2 cbr 1000 ------- 2 1.0 3.1 79 80
- 0.732 1 2 cbr 1000 ------- 2 1.0 3.1 79 80
r 0.738 1 2 cbr 1000 ------- 2 1.0 3.1 78 79
+ 0.738 2 3 cbr 1000 ------- 2 1.0 3.1 78 79
d 0.738 2 3 cbr 1000 ------- 2 1.0 3.1 78 79
- 0.739 2 3 cbr 1000 ------- 2 1.0 3.1 61 62
+ 0.74 1 2 cbr 1000 ------- 2 1.0 3.1 80 81
- 0.74 1 2 cbr 1000 ------- 2 1.0 3.1 80 81
r 0.743375 2 3 cbr 1000 ------- 2 1.0 3.1 57 58
r 0.746 1 2 cbr 1000 ------- 2 1.0 3.1 79 80
+ 0.746 2 3 cbr 1000 ------- 2 1.0 3.1 79 80
+ 0.748 1 2 cbr 1000 ------- 2 1.0 3.1 81 82
- 0.748 1 2 cbr 1000 ------- 2 1.0 3.1 81 82
r 0.754 1 2 cbr 1000 ------- 2 1.0 3.1 80 81
+ 0.754 2 3 cbr 1000 ------- 2 1.0 3.1 80 81
d 0.754 2 3 cbr 1000 ------- 2 1.0 3.1 80 81
- 0.754625 2 3 cbr 1000 ------- 2 1.0 3.1 63 64
+ 0.756 1 2 cbr 1000 ------- 2 1.0 3.1 82 83
- 0.756 1 2 cbr 1000 ------- 2 1.0 3.1 82 83
r 0.759 2 3 cbr 1000 ------- 2 1.0 3.1 59 60
r 0.762 1 2 cbr 1000 ------- 2 1.0 3.1 81 82
+ 0.762 2 3 cbr 1000 ------- 2 1.0 3.1 81 82
+ 0.764 1 2 cbr 1000 ------- 2 1.0 3.1 83 84
- 0.764 1 2 cbr 1000 ------- 2 1.0 3.1 83 84
r 0.77 1 2 cbr 1000 ------- 2 1.0 3.1 82 83
+ 0.77 2 3 cbr 1000 ------- 2 1.0 3.1 82 83
d 0.77 2 3 cbr 1000 ------- 2 1.0 3.1 82 83
- 0.77025 2 3 cbr 1000 ------- 2 1.0 3.1 65 66
+ 0.772 1 2 cbr 1000 ------- 2 1.0 3.1 84 85
- 0.772 1 2 cbr 1000 ------- 2 1.0 3.1 84 85
r 0.774625 2 3 cbr 1000 ------- 2 1.0 3.1 61 62
r 0.778 1 2 cbr 1000 ------- 2 1.0 3.1 83 84
+ 0.778 2 3 cbr 1000 ------- 2 1.0 3.1 83 84
+ 0.78 1 2 cbr 1000 ------- 2 1.0 3.1 85 86
- 0.78 1 2 cbr 1000 ------- 2 1.0 3.1 85 86
- 0.785875 2 3 cbr 1000 ------- 2 1.0 3.1 67 68
r 0.786 1 2 cbr 1000 ------- 2 1.0 3.1 84 85
+ 0.786 2 3 cbr 1000 ------- 2 1.0 3.1 84 85
+ 0.788 1 2 cbr 1000 ------- 2 1.0 3.1 86 87
- 0.788 1 2 cbr 1000 ------- 2 1.0 3.1 86 87
r 0.79025 2 3 cbr 1000 ------- 2 1.0 3.1 63 64
r 0.794 1 2 cbr 1000 ------- 2 1.0 3.1 85 86
+ 0.794 2 3 cbr 1000 ------- 2 1.0 3.1 85 86
d 0.794 2 3 cbr 1000 ------- 2 1.0 3.1 85 86
+ 0.796 1 2 cbr 1000 ------- 2 1.0 3.1 87 88
- 0.796 1 2 cbr 1000 ------- 2 1.0 3.1 87 88
- 0.8015 2 3 cbr 1000 ------- 2 1.0 3.1 69 70
r 0.802 1 2 cbr 1000 ------- 2 1.0 3.1 86 87
+ 0.802 2 3 cbr 1000 ------- 2 1.0 3.1 86 87
+ 0.804 1 2 cbr 1000 ------- 2 1.0 3.1 88 89
- 0.804 1 2 cbr 1000 ------- 2 1.0 3.1 88 89
r 0.805875 2 3 cbr 1000 ------- 2 1.0 3.1 65 66
r 0.81 1 2 cbr 1000 ------- 2 1.0 3.1 87 88
+ 0.81 2 3 cbr 1000 ------- 2 1.0 3.1 87 88
d 0.81 2 3 cbr 1000 ------- 2 1.0 3.1 87 88
+ 0.812 1 2 cbr 1000 ------- 2 1.0 3.1 89 90
- 0.812 1 2 cbr 1000 ------- 2 1.0 3.1 89 90
- 0.817125 2 3 cbr 1000 ------- 2 1.0 3.1 71 72
r 0.818 1 2 cbr 1000 ------- 2 1.0 3.1 88 89
+ 0.818 2 3 cbr 1000 ------- 2 1.0 3.1 88 89
+ 0.82 1 2 cbr 1000 ------- 2 1.0 3.1 90 91
- 0.82 1 2 cbr 1000 ------- 2 1.0 3.1 90 91
r 0.8215 2 3 cbr 1000 ------- 2 1.0 3.1 67 68
r 0.826 1 2 cbr 1000 ------- 2 1.0 3.1 89 90
+ 0.826 2 3 cbr 1000 ------- 2 1.0 3.1 89 90
d 0.826 2 3 cbr 1000 ------- 2 1.0 3.1 89 90
+ 0.828 1 2 cbr 1000 ------- 2 1.0 3.1 91 92
- 0.828 1 2 cbr 1000 ------- 2 1.0 3.1 91 92
- 0.83275 2 3 cbr 1000 ------- 2 1.0 3.1 73 74
r 0.834 1 2 cbr 1000 ------- 2 1.0 3.1 90 91
+ 0.834 2 3 cbr 1000 ------- 2 1.0 3.1 90 91
+ 0.836 1 2 cbr 1000 ------- 2 1.0 3.1 92 93
- 0.836 1 2 cbr 1000 ------- 2 1.0 3.1 92 93
r 0.837125 2 3 cbr 1000 ------- 2 1.0 3.1 69 70
r 0.842 1 2 cbr 1000 ------- 2 1.0 3.1 91 92
+ 0.842 2 3 cbr 1000 ------- 2 1.0 3.1 91 92
d 0.842 2 3 cbr 1000 ------- 2 1.0 3.1 91 92
+ 0.844 1 2 cbr 1000 ------- 2 1.0 3.1 93 94
- 0.844 1 2 cbr 1000 ------- 2 1.0 3.1 93 94
- 0.848375 2 3 cbr 1000 ------- 2 1.0 3.1 75 76
r 0.85 1 2 cbr 1000 ------- 2 1.0 3.1 92 93
+ 0.85 2 3 cbr 1000 ------- 2 1.0 3.1 92 93
+ 0.852 1 2 cbr 1000 ------- 2 1.0 3.1 94 95
- 0.852 1 2 cbr 1000 ------- 2 1.0 3.1 94 95
r 0.85275 2 3 cbr 1000 ------- 2 1.0 3.1 71 72
r 0.858 1 2 cbr 1000 ------- 2 1.0 3.1 93 94
+ 0.858 2 3 cbr 1000 ------- 2 1.0 3.1 93 94
d 0.858 2 3 cbr 1000 ------- 2 1.0 3.1 93 94
+ 0.86 1 2 cbr 1000 ------- 2 1.0 3.1 95 96
- 0.86 1 2 cbr 1000 ------- 2 1.0 3.1 95 96
- 0.864 2 3 cbr 1000 ------- 2 1.0 3.1 77 78
r 0.866 1 2 cbr 1000 ------- 2 1.0 3.1 94 95
+ 0.866 2 3 cbr 1000 ------- 2 1.0 3.1 94 95
+ 0.868 1 2 cbr 1000 ------- 2 1.0 3.1 96 97
- 0.868 1 2 cbr 1000 ------- 2 1.0 3.1 96 97
r 0.868375 2 3 cbr 1000 ------- 2 1.0 3.1 73 74
r 0.874 1 2 cbr 1000 ------- 2 1.0 3.1 95 96
+ 0.874 2 3 cbr 1000 ------- 2 1.0 3.1 95 96
d 0.874 2 3 cbr 1000 ------- 2 1.0 3.1 95 96
+ 0.876 1 2 cbr 1000 ------- 2 1.0 3.1 97 98
- 0.876 1 2 cbr 1000 ------- 2 1.0 3.1 97 98
- 0.879625 2 3 cbr 1000 ------- 2 1.0 3.1 79 80
r 0.882 1 2 cbr 1000 ------- 2 1.0 3.1 96 97
+ 0.882 2 3 cbr 1000 ------- 2 1.0 3.1 96 97
r 0.884 2 3 cbr 1000 ------- 2 1.0 3.1 75 76
+ 0.884 1 2 cbr 1000 ------- 2 1.0 3.1 98 99
- 0.884 1 2 cbr 1000 ------- 2 1.0 3.1 98 99
r 0.89 1 2 cbr 1000 ------- 2 1.0 3.1 97 98
+ 0.89 2 3 cbr 1000 ------- 2 1.0 3.1 97 98
d 0.89 2 3 cbr 1000 ------- 2 1.0 3.1 97 98
+ 0.892 1 2 cbr 1000 ------- 2 1.0 3.1 99 100
- 0.892 1 2 cbr 1000 ------- 2 1.0 3.1 99 100
- 0.89525 2 3 cbr 1000 ------- 2 1.0 3.1 81 82
r 0.898 1 2 cbr 1000 ------- 2 1.0 3.1 98 99
+ 0.898 2 3 cbr 1000 ------- 2 1.0 3.1 98 99
r 0.899625 2 3 cbr 1000 ------- 2 1.0 3.1 77 78
+ 0.9 1 2 cbr 1000 ------- 2 1.0 3.1 100 101
- 0.9 1 2 cbr 1000 ------- 2 1.0 3.1 100 101
r 0.906 1 2 cbr 1000 ------- 2 1.0 3.1 99 100
+ 0.906 2 3 cbr 1000 ------- 2 1.0 3.1 99 100
d 0.906 2 3 cbr 1000 ------- 2 1.0 3.1 99 100
+ 0.908 1 2 cbr 1000 ------- 2 1.0 3.1 101 102
- 0.908 1 2 cbr 1000 ------- 2 1.0 3.1 101 102
- 0.910875 2 3 cbr 1000 ------- 2 1.0 3.1 83 84
r 0.914 1 2 cbr 1000 ------- 2 1.0 3.1 100 101
+ 0.914 2 3 cbr 1000 ------- 2 1.0 3.1 100 101
r 0.91525 2 3 cbr 1000 ------- 2 1.0 3.1 79 80
+ 0.916 1 2 cbr 1000 ------- 2 1.0 3.1 102 103
- 0.916 1 2 cbr 1000 ------- 2 1.0 3.1 102 103
r 0.922 1 2 cbr 1000 ------- 2 1.0 3.1 101 102
+ 0.922 2 3 cbr 1000 ------- 2 1.0 3.1 101 102
d 0.922 2 3 cbr 1000 ------- 2 1.0 3.1 101 102
+ 0.924 1 2 cbr 1000 ------- 2 1.0 3.1 103 104
- 0.924 1 2 cbr 1000 ------- 2 1.0 3.1 103 104
- 0.9265 2 3 cbr 1000 ------- 2 1.0 3.1 84 85
r 0.93 1 2 cbr 1000 ------- 2 1.0 3.1 102 103
+ 0.93 2 3 cbr 1000 ------- 2 1.0 3.1 102 103
r 0.930875 2 3 cbr 1000 ------- 2 1.0 3.1 81 82
+ 0.932 1 2 cbr 1000 ------- 2 1.0 3.1 104 105
- 0.932 1 2 cbr 1000 ------- 2 1.0 3.1 104 105
r 0.938 1 2 cbr 1000 ------- 2 1.0 3.1 103 104
+ 0.938 2 3 cbr 1000 ------- 2 1.0 3.1 103 104
d 0.938 2 3 cbr 1000 ------- 2 1.0 3.1 103 104
+ 0.94 1 2 cbr 1000 ------- 2 1.0 3.1 105 106
- 0.94 1 2 cbr 1000 ------- 2 1.0 3.1 105 106
- 0.942125 2 3 cbr 1000 ------- 2 1.0 3.1 86 87
r 0.946 1 2 cbr 1000 ------- 2 1.0 3.1 104 105
+ 0.946 2 3 cbr 1000 ------- 2 1.0 3.1 104 105
r 0.9465 2 3 cbr 1000 ------- 2 1.0 3.1 83 84
+ 0.948 1 2 cbr 1000 ------- 2 1.0 3.1 106 107
- 0.948 1 2 cbr 1000 ------- 2 1.0 3.1 106 107
r 0.954 1 2 cbr 1000 ------- 2 1.0 3.1 105 106
+ 0.954 2 3 cbr 1000 ------- 2 1.0 3.1 105 106
d 0.954 2 3 cbr 1000 ------- 2 1.0 3.1 105 106
+ 0.956 1 2 cbr 1000 ------- 2 1.0 3.1 107 108
- 0.956 1 2 cbr 1000 ------- 2 1.0 3.1 107 108
- 0.95775 2 3 cbr 1000 ------- 2 1.0 3.1 88 89
r 0.962 1 2 cbr 1000 ------- 2 1.0 3.1 106 107
+ 0.962 2 3 cbr 1000 ------- 2 1.0 3.1 106 107
r 0.962125 2 3 cbr 1000 ------- 2 1.0 3.1 84 85
+ 0.964 1 2 cbr 1000 ------- 2 1.0 3.1 108 109
- 0.964 1 2 cbr 1000 ------- 2 1.0 3.1 108 109
r 0.97 1 2 cbr 1000 ------- 2 1.0 3.1 107 108
+ 0.97 2 3 cbr 1000 ------- 2 1.0 3.1 107 108
d 0.97 2 3 cbr 1000 ------- 2 1.0 3.1 107 108
+ 0.972 1 2 cbr 1000 ------- 2 1.0 3.1 109 110
- 0.972 1 2 cbr 1000 ------- 2 1.0 3.1 109 110
- 0.973375 2 3 cbr 1000 ------- 2 1.0 3.1 90 91
r 0.97775 2 3 cbr 1000 ------- 2 1.0 3.1 86 87
r 0.978 1 2 cbr 1000 ------- 2 1.0 3.1 108 109
+ 0.978 2 3 cbr 1000 ------- 2 1.0 3.1 108 109
+ 0.98 1 2 cbr 1000 ------- 2 1.0 3.1 110 111
- 0.98 1 2 cbr 1000 ------- 2 1.0 3.1 110 111
r 0.986 1 2 cbr 1000 ------- 2 1.0 3.1 109 110
+ 0.986 2 3 cbr 1000 ------- 2 1.0 3.1 109 110
d 0.986 2 3 cbr 1000 ------- 2 1.0 3.1 109 110
+ 0.988 1 2 cbr 1000 ------- 2 1.0 3.1 111 112
- 0.988 1 2 cbr 1000 ------- 2 1.0 3.1 111 112
- 0.989 2 3 cbr 1000 ------- 2 1.0 3.1 92 93
r 0.993375 2 3 cbr 1000 ------- 2 1.0 3.1 88 89
r 0.994 1 2 cbr 1000 ------- 2 1.0 3.1 110 111
+ 0.994 2 3 cbr 1000 ------- 2 1.0 3.1 110 111
+ 0.996 1 2 cbr 1000 ------- 2 1.0 3.1 112 113
- 0.996 1 2 cbr 1000 ------- 2 1.0 3.1 112 113
r 1.002 1 2 cbr 1000 ------- 2 1.0 3.1 111 112
+ 1.002 2 3 cbr 1000 ------- 2 1.0 3.1 111 112
d 1.002 2 3 cbr 1000 ------- 2 1.0 3.1 111 112
+ 1.004 1 2 cbr 1000 ------- 2 1.0 3.1 113 114
- 1.004 1 2 cbr 1000 ------- 2 1.0 3.1 113 114
- 1.004625 2 3 cbr 1000 ------- 2 1.0 3.1 94 95
r 1.009 2 3 cbr 1000 ------- 2 1.0 3.1 90 91
r 1.01 1 2 cbr 1000 ------- 2 1.0 3.1 112 113
+ 1.01 2 3 cbr 1000 ------- 2 1.0 3.1 112 113
+ 1.012 1 2 cbr 1000 ------- 2 1.0 3.1 114 115
- 1.012 1 2 cbr 1000 ------- 2 1.0 3.1 114 115
r 1.018 1 2 cbr 1000 ------- 2 1.0 3.1 113 114
+ 1.018 2 3 cbr 1000 ------- 2 1.0 3.1 113 114
d 1.018 2 3 cbr 1000 ------- 2 1.0 3.1 113 114
+ 1.02 1 2 cbr 1000 ------- 2 1.0 3.1 115 116
- 1.02 1 2 cbr 1000 ------- 2 1.0 3.1 115 116
- 1.02025 2 3 cbr 1000 ------- 2 1.0 3.1 96 97
r 1.024625 2 3 cbr 1000 ------- 2 1.0 3.1 92 93
r 1.026 1 2 cbr 1000 ------- 2 1.0 3.1 114 115
+ 1.026 2 3 cbr 1000 ------- 2 1.0 3.1 114 115
+ 1.028 1 2 cbr 1000 ------- 2 1.0 3.1 116 117
- 1.028 1 2 cbr 1000 ------- 2 1.0 3.1 116 117
r 1.034 1 2 cbr 1000 ------- 2 1.0 3.1 115 116
+ 1.034 2 3 cbr 1000 ------- 2 1.0 3.1 115 116
d 1.034 2 3 cbr 1000 ------- 2 1.0 3.1 115 116
- 1.035875 2 3 cbr 1000 ------- 2 1.0 3.1 98 99
+ 1.036 1 2 cbr 1000 ------- 2 1.0 3.1 117 118
- 1.036 1 2 cbr 1000 ------- 2 1.0 3.1 117 118
r 1.04025 2 3 cbr 1000 ------- 2 1.0 3.1 94 95
r 1.042 1 2 cbr 1000 ------- 2 1.0 3.1 116 117
+ 1.042 2 3 cbr 1000 ------- 2 1.0 3.1 116 117
+ 1.044 1 2 cbr 1000 ------- 2 1.0 3.1 118 119
- 1.044 1 2 cbr 1000 ------- 2 1.0 3.1 118 119
r 1.05 1 2 cbr 1000 ------- 2 1.0 3.1 117 118
+ 1.05 2 3 cbr 1000 ------- 2 1.0 3.1 117 118
d 1.05 2 3 cbr 1000 ------- 2 1.0 3.1 117 118
- 1.0515 2 3 cbr 1000 ------- 2 1.0 3.1 100 101
+ 1.052 1 2 cbr 1000 ------- 2 1.0 3.1 119 120
- 1.052 1 2 cbr 1000 ------- 2 1.0 3.1 119 120
r 1.055875 2 3 cbr 1000 ------- 2 1.0 3.1 96 97
r 1.058 1 2 cbr 1000 ------- 2 1.0 3.1 118 119
+ 1.058 2 3 cbr 1000 ------- 2 1.0 3.1 118 119
+ 1.06 1 2 cbr 1000 ------- 2 1.0 3.1 120 121
- 1.06 1 2 cbr 1000 ------- 2 1.0 3.1 120 121
r 1.066 1 2 cbr 1000 ------- 2 1.0 3.1 119 120
+ 1.066 2 3 cbr 1000 ------- 2 1.0 3.1 119 120
d 1.066 2 3 cbr 1000 ------- 2 1.0 3.1 119 120
- 1.067125 2 3 cbr 1000 ------- 2 1.0 3.1 102 103
+ 1.068 1 2 cbr 1000 ------- 2 1.0 3.1 121 122
- 1.068 1 2 cbr 1000 ------- 2 1.0 3.1 121 122
r 1.0715 2 3 cbr 1000 ------- 2 1.0 3.1 98 99
r 1.074 1 2 cbr 1000 ------- 2 1.0 3.1 120 121