V -t * -v 1.0a5 -a 0
A -t * -n 1 -p 0 -o 0x7fffffff -c 30 -a 1
A -t * -h 1 -m 1073741823 -s 0
c -t * -i 1 -n Blue
n -t * -a 0 -s 0 -S UP -v circle -c black -i black
n -t * -a 1 -s 1 -S UP -v circle -c black -i black
n -t * -a 2 -s 2 -S UP -v circle -c black -i black
l -t * -s 0 -d 1 -S UP -r 2000000 -D 0.01 -c black -o up
l -t * -s 1 -d 2 -S UP -r 512000 -D 0.01 -c black -o right
+ -t 0.1 -s 0 -d 1 -p tcp -e 40 -c 1 -i 0 -a 1 -x {0.0 2.0 0 ------- null}
- -t 0.1 -s 0 -d 1 -p tcp -e 40 -c 1 -i 0 -a 1 -x {0.0 2.0 0 ------- null}
h -t 0.1 -s 0 -d 1 -p tcp -e 40 -c 1 -i 0 -a 1 -x {0.0 2.0 -1 ------- null}
r -t 0.11016 -s 0 -d 1 -p tcp -e 40 -c 1 -i 0 -a 1 -x {0.0 2.0 0 ------- null}
+ -t 0.11016 -s 1 -d 2 -p tcp -e 40 -c 1 -i 0 -a 1 -x {0.0 2.0 0 ------- null}
- -t 0.11016 -s 1 -d 2 -p tcp -e 40 -c 1 -i 0 -a 1 -x {0.0 2.0 0 ------- null}
h -t 0.11016 -s 1 -d 2 -p tcp -e 40 -c 1 -i 0 -a 1 -x {0.0 2.0 -1 ------- null}
r -t 0.120785 -s 1 -d 2 -p tcp -e 40 -c 1 -i 0 -a 1 -x {0.0 2.0 0 ------- null}
+ -t 0.120785 -s 2 -d 1 -p ack -e 40 -c 1 -i 1 -a 1 -x {2.0 0.0 0 ------- null}
- -t 0.120785 -s 2 -d 1 -p ack -e 40 -c 1 -i 1 -a 1 -x {2.0 0.0 0 ------- null}
h -t 0.120785 -s 2 -d 1 -p ack -e 40 -c 1 -i 1 -a 1 -x {2.0 0.0 -1 ------- null}
r -t 0.13141 -s 2 -d 1 -p ack -e 40 -c 1 -i 1 -a 1 -x {2.0 0.0 0 ------- null}
+ -t 0.13141 -s 1 -d 0 -p ack -e 40 -c 1 -i 1 -a 1 -x {2.0 0.0 0 ------- null}
- -t 0.13141 -s 1 -d 0 -p ack -e 40 -c 1 -i 1 -a 1 -x {2.0 0.0 0 ------- null}
h -t 0.13141 -s 1 -d 0 -p ack -e 40 -c 1 -i 1 -a 1 -x {2.0 0.0 -1 ------- null}
r -t 0.14157 -s 1 -d 0 -p ack -e 40 -c 1 -i 1 -a 1 -x {2.0 0.0 0 ------- null}
+ -t 0.14157 -s 0 -d 1 -p tcp -e 1040 -c 1 -i 2 -a 1 -x {0.0 2.0 1 ------- null}
- -t 0.14157 -s 0 -d 1 -p tcp -e 1040 -c 1 -i 2 -a 1 -x {0.0 2.0 1 ------- null}
h -t 0.14157 -s 0 -d 1 -p tcp -e 1040 -c 1 -i 2 -a 1 -x {0.0 2.0 -1 ------- null}
+ -t 0.14157 -s 0 -d 1 -p tcp -e 1040 -c 1 -i 3 -a 1 -x {0.0 2.0 2 ------- null}
- -t 0.14573 -s 0 -d 1 -p tcp -e 1040 -c 1 -i 3 -a 1 -x {0.0 2.0 2 ------- null}
h -t 0.14573 -s 0 -d 1 -p tcp -e 1040 -c 1 -i 3 -a 1 -x {0.0 2.0 -1 ------- null}
r -t 0.15573 -s 0 -d 1 -p tcp -e 1040 -c 1 -i 2 -a 1 -x {0.0 2.0 1 ------- null}
+ -t 0.15573 -s 1 -d 2 -p tcp -e 1040 -c 1 -i 2 -a 1 -x {0.0 2.0 1 ------- null}
- -t 0.15573 -s 1 -d 2 -p tcp -e 1040 -c 1 -i 2 -a 1 -x {0.0 2.0 1 ------- null}
h -t 0.15573 -s 1 -d 2 -p tcp -e 1040 -c 1 -i 2 -a 1 -x {0.0 2.0 -1 ------- null}
r -t 0.15989 -s 0 -d 1 -p tcp -e 1040 -c 1 -i 3 -a 1 -x {0.0 2.0 2 ------- null}
+ -t 0.15989 -s 1 -d 2 -p tcp -e 1040 -c 1 -i 3 -a 1 -x {0.0 2.0 2 ------- null}
- -t 0.17198 -s 1 -d 2 -p tcp -e 1040 -c 1 -i 3 -a 1 -x {0.0 2.0 2 ------- null}
h -t 0.17198 -s 1 -d 2 -p tcp -e 1040 -c 1 -i 3 -a 1 -x {0.0 2.0 -1 ------- null}
r -t 0.18198 -s 1 -d 2 -p tcp -e 1040 -c 1 -i 2 -a 1 -x {0.0 2.0 1 ------- null}
+ -t 0.18198 -s 2 -d 1 -p ack -e 40 -c 1 -i 4 -a 1 -x {2.0 0.0 1 ------- null}
- -t 0.18198 -s 2 -d 1 -p ack -e 40 -c 1 -i 4 -a 1 -x {2.0 0.0 1 ------- null}
h -t 0.18198 -s 2 -d 1 -p ack -e 40 -c 1 -i 4 -a 1 -x {2.0 0.0 -1 ------- null}
r -t 0.192605 -s 2 -d 1 -p ack -e 40 -c 1 -i 4 -a 1 -x {2.0 0.0 1 ------- null}
+ -t 0.192605 -s 1 -d 0 -p ack -e 40 -c 1 -i 4 -a 1 -x {2.0 0.0 1 ------- null}
- -t 0.192605 -s 1 -d 0 -p ack -e 40 -c 1 -i 4 -a 1 -x {2.0 0.0 1 ------- null}
h -t 0.192605 -s 1 -d 0 -p ack -e 40 -c 1 -i 4 -a 1 -x {2.0 0.0 -1 ------- null}
r -t 0.19823 -s 1 -d 2 -p tcp -e 1040 -c 1 -i 3 -a 1 -x {0.0 2.0 2 ------- null}
+ -t 0.19823 -s 2 -d 1 -p ack -e 40 -c 1 -i 5 -a 1 -x {2.0 0.0 2 ------- null}
- -t 0.19823 -s 2 -d 1 -p ack -e 40 -c 1 -i 5 -a 1 -x {2.0 0.0 2 ------- null}
h -t 0.19823 -s 2 -d 1 -p ack -e 40 -c 1 -i 5 -a 1 -x {2.0 0.0 -1 ------- null}
r -t 0.202765 -s 1 -d 0 -p ack -e 40 -c 1 -i 4 -a 1 -x {2.0 0.0 1 ------- null}
+ -t 0.202765 -s 0 -d 1 -p tcp -e 1040 -c 1 -i 6 -a 1 -x {0.0 2.0 3 ------- null}
- -t 0.202765 -s 0 -d 1 -p tcp -e 1040 -c 1 -i 6 -a 1 -x {0.0 2.0 3 ------- null}
h -t 0.202765 -s 0 -d 1 -p tcp -e 1040 -c 1 -i 6 -a 1 -x {0.0 2.0 -1 ------- null}
+ -t 0.202765 -s 0 -d 1 -p tcp -e 1040 -c 1 -i 7 -a 1 -x {0.0 2.0 4 ------- null}
- -t 0.206925 -s 0 -d 1 -p tcp -e 1040 -c 1 -i 7 -a 1 -x {0.0 2.0 4 ------- null}
h -t 0.206925 -s 0 -d 1 -p tcp -e 1040 -c 1 -i 7 -a 1 -x {0.0 2.0 -1 ------- null}
r -t 0.208855 -s 2 -d 1 -p ack -e 40 -c 1 -i 5 -a 1 -x {2.0 0.0 2 ------- null}
+ -t 0.208855 -s 1 -d 0 -p ack -e 40 -c 1 -i 5 -a 1 -x {2.0 0.0 2 ------- null}
- -t 0.208855 -s 1 -d 0 -p ack -e 40 -c 1 -i 5 -a 1 -x {2.0 0.0 2 ------- null}
h -t 0.208855 -s 1 -d 0 -p ack -e 40 -c 1 -i 5 -a 1 -x {2.0 0.0 -1 ------- null}
r -t 0.216925 -s 0 -d 1 -p tcp -e 1040 -c 1 -i 6 -a 1 -x {0.0 2.0 3 ------- null}
+ -t 0.216925 -s 1 -d 2 -p tcp -e 1040 -c 1 -i 6 -a 1 -x {0.0 2.0 3 ------- null}
- -t 0.216925 -s 1 -d 2 -p tcp -e 1040 -c 1 -i 6 -a 1 -x {0.0 2.0 3 ------- null}
h -t 0.216925 -s 1 -d 2 -p tcp -e 1040 -c 1 -i 6 -a 1 -x {0.0 2.0 -1 ------- null}
r -t 0.219015 -s 1 -d 0 -p ack -e 40 -c 1 -i 5 -a 1 -x {2.0 0.0 2 ------- null}
+ -t 0.219015 -s 0 -d 1 -p tcp -e 1040 -c 1 -i 8 -a 1 -x {0.0 2.0 5 ------- null}
- -t 0.219015 -s 0 -d 1 -p tcp -e 1040 -c 1 -i 8 -a 1 -x {0.0 2.0 5 ------- null}
h -t 0.219015 -s 0 -d 1 -p tcp -e 1040 -c 1 -i 8 -a 1 -x {0.0 2.0 -1 ------- null}
+ -t 0.219015 -s 0 -d 1 -p tcp -e 1040 -c 1 -i 9 -a 1 -x {0.0 2.0 6 ------- null}
r -t 0.221085 -s 0 -d 1 -p tcp -e 1040 -c 1 -i 7 -a 1 -x {0.0 2.0 4 ------- null}
+ -t 0.221085 -s 1 -d 2 -p tcp -e 1040 -c 1 -i 7 -a 1 -x {0.0 2.0 4 ------- null}
- -t 0.223175 -s 0 -d 1 -p tcp -e 1040 -c 1 -i 9 -a 1 -x {0.0 2.0 6 ------- null}
h -t 0.223175 -s 0 -d 1 -p tcp -e 1040 -c 1 -i 9 -a 1 -x {0.0 2.0 -1 ------- null}
- -t 0.233175 -s 1 -d 2 -p tcp -e 1040 -c 1 -i 7 -a 1 -x {0.0 2.0 4 ------- null}
h -t 0.233175 -s 1 -d 2 -p tcp -e 1040 -c 1 -i 7 -a 1 -x {0.0 2.0 -1 ------- null}
r -t 0.233175 -s 0 -d 1 -p tcp -e 1040 -c 1 -i 8 -a 1 -x {0.0 2.0 5 ------- null}
+ -t 0.233175 -s 1 -d 2 -p tcp -e 1040 -c 1 -i 8 -a 1 -x {0.0 2.0 5 ------- null}
r -t 0.237335 -s 0 -d 1 -p tcp -e 1040 -c 1 -i 9 -a 1 -x {0.0 2.0 6 ------- null}
+ -t 0.237335 -s 1 -d 2 -p tcp -e 1040 -c 1 -i 9 -a 1 -x {0.0 2.0 6 ------- null}
r -t 0.243175 -s 1 -d 2 -p tcp -e 1040 -c 1 -i 6 -a 1 -x {0.0 2.0 3 ------- null}
+ -t 0.243175 -s 2 -d 1 -p ack -e 40 -c 1 -i 10 -a 1 -x {2.0 0.0 3 ------- null}
- -t 0.243175 -s 2 -d 1 -p ack -e 40 -c 1 -i 10 -a 1 -x {2.0 0.0 3 ------- null}
h -t 0.243175 -s 2 -d 1 -p ack -e 40 -c 1 -i 10 -a 1 -x {2.0 0.0 -1 ------- null}
- -t 0.249425 -s 1 -d 2 -p tcp -e 1040 -c 1 -i 8 -a 1 -x {0.0 2.0 5 ------- null}
h -t 0.249425 -s 1 -d 2 -p tcp -e 1040 -c 1 -i 8 -a 1 -x {0.0 2.0 -1 ------- null}
r -t 0.2538 -s 2 -d 1 -p ack -e 40 -c 1 -i 10 -a 1 -x {2.0 0.0 3 ------- null}
+ -t 0.2538 -s 1 -d 0 -p ack -e 40 -c 1 -i 10 -a 1 -x {2.0 0.0 3 ------- null}
- -t 0.2538 -s 1 -d 0 -p ack -e 40 -c 1 -i 10 -a 1 -x {2.0 0.0 3 ------- null}
h -t 0.2538 -s 1 -d 0 -p ack -e 40 -c 1 -i 10 -a 1 -x {2.0 0.0 -1 ------- null}
r -t 0.259425 -s 1 -d 2 -p tcp -e 1040 -c 1 -i 7 -a 1 -x {0.0 2.0 4 ------- null}
+ -t 0.259425 -s 2 -d 1 -p ack -e 40 -c 1 -i 11 -a 1 -x {2.0 0.0 4 ------- null}
- -t 0.259425 -s 2 -d 1 -p ack -e 40 -c 1 -i 11 -a 1 -x {2.0 0.0 4 ------- null}
h -t 0.259425 -s 2 -d 1 -p ack -e 40 -c 1 -i 11 -a 1 -x {2.0 0.0 -1 ------- null}
r -t 0.26396 -s 1 -d 0 -p ack -e 40 -c 1 -i 10 -a 1 -x {2.0 0.0 3 ------- null}
+ -t 0.26396 -s 0 -d 1 -p tcp -e 1040 -c 1 -i 12 -a 1 -x {0.0 2.0 7 ------- null}
- -t 0.26396 -s 0 -d 1 -p tcp -e 1040 -c 1 -i 12 -a 1 -x {0.0 2.0 7 ------- null}
h -t 0.26396 -s 0 -d 1 -p tcp -e 1040 -c 1 -i 12 -a 1 -x {0.0 2.0 -1 ------- null}
+ -t 0.26396 -s 0 -d 1 -p tcp -e 1040 -c 1 -i 13 -a 1 -x {0.0 2.0 8 ------- null}
- -t 0.265675 -s 1 -d 2 -p tcp -e 1040 -c 1 -i 9 -a 1 -x {0.0 2.0 6 ------- null}
h -t 0.265675 -s 1 -d 2 -p tcp -e 1040 -c 1 -i 9 -a 1 -x {0.0 2.0 -1 ------- null}
- -t 0.26812 -s 0 -d 1 -p tcp -e 1040 -c 1 -i 13 -a 1 -x {0.0 2.0 8 ------- null}
h -t 0.26812 -s 0 -d 1 -p tcp -e 1040 -c 1 -i 13 -a 1 -x {0.0 2.0 -1 ------- null}
r -t 0.27005 -s 2 -d 1 -p ack -e 40 -c 1 -i 11 -a 1 -x {2.0 0.0 4 ------- null}
+ -t 0.27005 -s 1 -d 0 -p ack -e 40 -c 1 -i 11 -a 1 -x {2.0 0.0 4 ------- null}
- -t 0.27005 -s 1 -d 0 -p ack -e 40 -c 1 -i 11 -a 1 -x {2.0 0.0 4 ------- null}
h -t 0.27005 -s 1 -d 0 -p ack -e 40 -c 1 -i 11 -a 1 -x {2.0 0.0 -1 ------- null}
r -t 0.275675 -s 1 -d 2 -p tcp -e 1040 -c 1 -i 8 -a 1 -x {0.0 2.0 5 ------- null}
+ -t 0.275675 -s 2 -d 1 -p ack -e 40 -c 1 -i 14 -a 1 -x {2.0 0.0 5 ------- null}
- -t 0.275675 -s 2 -d 1 -p ack -e 40 -c 1 -i 14 -a 1 -x {2.0 0.0 5 ------- null}
h -t 0.275675 -s 2 -d 1 -p ack -e 40 -c 1 -i 14 -a 1 -x {2.0 0.0 -1 ------- null}
r -t 0.27812 -s 0 -d 1 -p tcp -e 1040 -c 1 -i 12 -a 1 -x {0.0 2.0 7 ------- null}
+ -t 0.27812 -s 1 -d 2 -p tcp -e 1040 -c 1 -i 12 -a 1 -x {0.0 2.0 7 ------- null}
r -t 0.28021 -s 1 -d 0 -p ack -e 40 -c 1 -i 11 -a 1 -x {2.0 0.0 4 ------- null}
+ -t 0.28021 -s 0 -d 1 -p tcp -e 1040 -c 1 -i 15 -a 1 -x {0.0 2.0 9 ------- null}
- -t 0.28021 -s 0 -d 1 -p tcp -e 1040 -c 1 -i 15 -a 1 -x {0.0 2.0 9 ------- null}
h -t 0.28021 -s 0 -d 1 -p tcp -e 1040 -c 1 -i 15 -a 1 -x {0.0 2.0 -1 ------- null}
+ -t 0.28021 -s 0 -d 1 -p tcp -e 1040 -c 1 -i 16 -a 1 -x {0.0 2.0 10 ------- null}
- -t 0.281925 -s 1 -d 2 -p tcp -e 1040 -c 1 -i 12 -a 1 -x {0.0 2.0 7 ------- null}
h -t 0.281925 -s 1 -d 2 -p tcp -e 1040 -c 1 -i 12 -a 1 -x {0.0 2.0 -1 ------- null}
r -t 0.28228 -s 0 -d 1 -p tcp -e 1040 -c 1 -i 13 -a 1 -x {0.0 2.0 8 ------- null}
+ -t 0.28228 -s 1 -d 2 -p tcp -e 1040 -c 1 -i 13 -a 1 -x {0.0 2.0 8 ------- null}
- -t 0.28437 -s 0 -d 1 -p tcp -e 1040 -c 1 -i 16 -a 1 -x {0.0 2.0 10 ------- null}
h -t 0.28437 -s 0 -d 1 -p tcp -e 1040 -c 1 -i 16 -a 1 -x {0.0 2.0 -1 ------- null}
r -t 0.2863 -s 2 -d 1 -p ack -e 40 -c 1 -i 14 -a 1 -x {2.0 0.0 5 ------- null}
+ -t 0.2863 -s 1 -d 0 -p ack -e 40 -c 1 -i 14 -a 1 -x {2.0 0.0 5 ------- null}
- -t 0.2863 -s 1 -d 0 -p ack -e 40 -c 1 -i 14 -a 1 -x {2.0 0.0 5 ------- null}
h -t 0.2863 -s 1 -d 0 -p ack -e 40 -c 1 -i 14 -a 1 -x {2.0 0.0 -1 ------- null}
r -t 0.291925 -s 1 -d 2 -p tcp -e 1040 -c 1 -i 9 -a 1 -x {0.0 2.0 6 ------- null}
+ -t 0.291925 -s 2 -d 1 -p ack -e 40 -c 1 -i 17 -a 1 -x {2.0 0.0 6 ------- null}
- -t 0.291925 -s 2 -d 1 -p ack -e 40 -c 1 -i 17 -a 1 -x {2.0 0.0 6 ------- null}
h -t 0.291925 -s 2 -d 1 -p ack -e 40 -c 1 -i 17 -a 1 -x {2.0 0.0 -1 ------- null}
r -t 0.29437 -s 0 -d 1 -p tcp -e 1040 -c 1 -i 15 -a 1 -x {0.0 2.0 9 ------- null}
+ -t 0.29437 -s 1 -d 2 -p tcp -e 1040 -c 1 -i 15 -a 1 -x {0.0 2.0 9 ------- null}
r -t 0.29646 -s 1 -d 0 -p ack -e 40 -c 1 -i 14 -a 1 -x {2.0 0.0 5 ------- null}
+ -t 0.29646 -s 0 -d 1 -p tcp -e 1040 -c 1 -i 18 -a 1 -x {0.0 2.0 11 ------- null}
- -t 0.29646 -s 0 -d 1 -p tcp -e 1040 -c 1 -i 18 -a 1 -x {0.0 2.0 11 ------- null}
h -t 0.29646 -s 0 -d 1 -p tcp -e 1040 -c 1 -i 18 -a 1 -x {0.0 2.0 -1 ------- null}
+ -t 0.29646 -s 0 -d 1 -p tcp -e 1040 -c 1 -i 19 -a 1 -x {0.0 2.0 12 ------- null}
- -t 0.298175 -s 1 -d 2 -p tcp -e 1040 -c 1 -i 13 -a 1 -x {0.0 2.0 8 ------- null}
h -t 0.298175 -s 1 -d 2 -p tcp -e 1040 -c 1 -i 13 -a 1 -x {0.0 2.0 -1 ------- null}
r -t 0.29853 -s 0 -d 1 -p tcp -e 1040 -c 1 -i 16 -a 1 -x {0.0 2.0 10 ------- null}
+ -t 0.29853 -s 1 -d 2 -p tcp -e 1040 -c 1 -i 16 -a 1 -x {0.0 2.0 10 ------- null}
- -t 0.30062 -s 0 -d 1 -p tcp -e 1040 -c 1 -i 19 -a 1 -x {0.0 2.0 12 ------- null}
h -t 0.30062 -s 0 -d 1 -p tcp -e 1040 -c 1 -i 19 -a 1 -x {0.0 2.0 -1 ------- null}
r -t 0.30255 -s 2 -d 1 -p ack -e 40 -c 1 -i 17 -a 1 -x {2.0 0.0 6 ------- null}
+ -t 0.30255 -s 1 -d 0 -p ack -e 40 -c 1 -i 17 -a 1 -x {2.0 0.0 6 ------- null}
- -t 0.30255 -s 1 -d 0 -p ack -e 40 -c 1 -i 17 -a 1 -x {2.0 0.0 6 ------- null}
h -t 0.30255 -s 1 -d 0 -p ack -e 40 -c 1 -i 17 -a 1 -x {2.0 0.0 -1 ------- null}
r -t 0.308175 -s 1 -d 2 -p tcp -e 1040 -c 1 -i 12 -a 1 -x {0.0 2.0 7 ------- null}
+ -t 0.308175 -s 2 -d 1 -p ack -e 40 -c 1 -i 20 -a 1 -x {2.0 0.0 7 ------- null}
- -t 0.308175 -s 2 -d 1 -p ack -e 40 -c 1 -i 20 -a 1 -x {2.0 0.0 7 ------- null}
h -t 0.308175 -s 2 -d 1 -p ack -e 40 -c 1 -i 20 -a 1 -x {2.0 0.0 -1 ------- null}
r -t 0.31062 -s 0 -d 1 -p tcp -e 1040 -c 1 -i 18 -a 1 -x {0.0 2.0 11 ------- null}
+ -t 0.31062 -s 1 -d 2 -p tcp -e 1040 -c 1 -i 18 -a 1 -x {0.0 2.0 11 ------- null}
r -t 0.31271 -s 1 -d 0 -p ack -e 40 -c 1 -i 17 -a 1 -x {2.0 0.0 6 ------- null}
+ -t 0.31271 -s 0 -d 1 -p tcp -e 1040 -c 1 -i 21 -a 1 -x {0.0 2.0 13 ------- null}
- -t 0.31271 -s 0 -d 1 -p tcp -e 1040 -c 1 -i 21 -a 1 -x {0.0 2.0 13 ------- null}
h -t 0.31271 -s 0 -d 1 -p tcp -e 1040 -c 1 -i 21 -a 1 -x {0.0 2.0 -1 ------- null}
+ -t 0.31271 -s 0 -d 1 -p tcp -e 1040 -c 1 -i 22 -a 1 -x {0.0 2.0 14 ------- null}
- -t 0.314425 -s 1 -d 2 -p tcp -e 1040 -c 1 -i 15 -a 1 -x {0.0 2.0 9 ------- null}
h -t 0.314425 -s 1 -d 2 -p tcp -e 1040 -c 1 -i 15 -a 1 -x {0.0 2.0 -1 ------- null}
r -t 0.31478 -s 0 -d 1 -p tcp -e 1040 -c 1 -i 19 -a 1 -x {0.0 2.0 12 ------- null}
+ -t 0.31478 -s 1 -d 2 -p tcp -e 1040 -c 1 -i 19 -a 1 -x {0.0 2.0 12 ------- null}
- -t 0.31687 -s 0 -d 1 -p tcp -e 1040 -c 1 -i 22 -a 1 -x {0.0 2.0 14 ------- null}
h -t 0.31687 -s 0 -d 1 -p tcp -e 1040 -c 1 -i 22 -a 1 -x {0.0 2.0 -1 ------- null}
r -t 0.3188 -s 2 -d 1 -p ack -e 40 -c 1 -i 20 -a 1 -x {2.0 0.0 7 ------- null}
+ -t 0.3188 -s 1 -d 0 -p ack -e 40 -c 1 -i 20 -a 1 -x {2.0 0.0 7 ------- null}
- -t 0.3188 -s 1 -d 0 -p ack -e 40 -c 1 -i 20 -a 1 -x {2.0 0.0 7 ------- null}
h -t 0.3188 -s 1 -d 0 -p ack -e 40 -c 1 -i 20 -a 1 -x {2.0 0.0 -1 ------- null}
r -t 0.324425 -s 1 -d 2 -p tcp -e 1040 -c 1 -i 13 -a 1 -x {0.0 2.0 8 ------- null}
+ -t 0.324425 -s 2 -d 1 -p ack -e 40 -c 1 -i 23 -a 1 -x {2.0 0.0 8 ------- null}
- -t 0.324425 -s 2 -d 1 -p ack -e 40 -c 1 -i 23 -a 1 -x {2.0 0.0 8 ------- null}
h -t 0.324425 -s 2 -d 1 -p ack -e 40 -c 1 -i 23 -a 1 -x {2.0 0.0 -1 ------- null}
r -t 0.32687 -s 0 -d 1 -p tcp -e 1040 -c 1 -i 21 -a 1 -x {0.0 2.0 13 ------- null}
+ -t 0.32687 -s 1 -d 2 -p tcp -e 1040 -c 1 -i 21 -a 1 -x {0.0 2.0 13 ------- null}
r -t 0.32896 -s 1 -d 0 -p ack -e 40 -c 1 -i 20 -a 1 -x {2.0 0.0 7 ------- null}
+ -t 0.32896 -s 0 -d 1 -p tcp -e 1040 -c 1 -i 24 -a 1 -x {0.0 2.0 15 ------- null}
- -t 0.32896 -s 0 -d 1 -p tcp -e 1040 -c 1 -i 24 -a 1 -x {0.0 2.0 15 ------- null}
h -t 0.32896 -s 0 -d 1 -p tcp -e 1040 -c 1 -i 24 -a 1 -x {0.0 2.0 -1 ------- null}
+ -t 0.32896 -s 0 -d 1 -p tcp -e 1040 -c 1 -i 25 -a 1 -x {0.0 2.0 16 ------- null}
- -t 0.330675 -s 1 -d 2 -p tcp -e 1040 -c 1 -i 16 -a 1 -x {0.0 2.0 10 ------- null}
h -t 0.330675 -s 1 -d 2 -p tcp -e 1040 -c 1 -i 16 -a 1 -x {0.0 2.0 -1 ------- null}
r -t 0.33103 -s 0 -d 1 -p tcp -e 1040 -c 1 -i 22 -a 1 -x {0.0 2.0 14 ------- null}
+ -t 0.33103 -s 1 -d 2 -p tcp -e 1040 -c 1 -i 22 -a 1 -x {0.0 2.0 14 ------- null}
- -t 0.33312 -s 0 -d 1 -p tcp -e 1040 -c 1 -i 25 -a 1 -x {0.0 2.0 16 ------- null}
h -t 0.33312 -s 0 -d 1 -p tcp -e 1040 -c 1 -i 25 -a 1 -x {0.0 2.0 -1 ------- null}
r -t 0.33505 -s 2 -d 1 -p ack -e 40 -c 1 -i 23 -a 1 -x {2.0 0.0 8 ------- null}
+ -t 0.33505 -s 1 -d 0 -p ack -e 40 -c 1 -i 23 -a 1 -x {2.0 0.0 8 ------- null}
- -t 0.33505 -s 1 -d 0 -p ack -e 40 -c 1 -i 23 -a 1 -x {2.0 0.0 8 ------- null}
h -t 0.33505 -s 1 -d 0 -p ack -e 40 -c 1 -i 23 -a 1 -x {2.0 0.0 -1 ------- null}
r -t 0.340675 -s 1 -d 2 -p tcp -e 1040 -c 1 -i 15 -a 1 -x {0.0 2.0 9 ------- null}
+ -t 0.340675 -s 2 -d 1 -p ack -e 40 -c 1 -i 26 -a 1 -x {2.0 0.0 9 ------- null}
- -t 0.340675 -s 2 -d 1 -p ack -e 40 -c 1 -i 26 -a 1 -x {2.0 0.0 9 ------- null}
h -t 0.340675 -s 2 -d 1 -p ack -e 40 -c 1 -i 26 -a 1 -x {2.0 0.0 -1 ------- null}
r -t 0.34312 -s 0 -d 1 -p tcp -e 1040 -c 1 -i 24 -a 1 -x {0.0 2.0 15 ------- null}
+ -t 0.34312 -s 1 -d 2 -p tcp -e 1040 -c 1 -i 24 -a 1 -x {0.0 2.0 15 ------- null}
r -t 0.34521 -s 1 -d 0 -p ack -e 40 -c 1 -i 23 -a 1 -x {2.0 0.0 8 ------- null}
+ -t 0.34521 -s 0 -d 1 -p tcp -e 1040 -c 1 -i 27 -a 1 -x {0.0 2.0 17 ------- null}
- -t 0.34521 -s 0 -d 1 -p tcp -e 1040 -c 1 -i 27 -a 1 -x {0.0 2.0 17 ------- null}
h -t 0.34521 -s 0 -d 1 -p tcp -e 1040 -c 1 -i 27 -a 1 -x {0.0 2.0 -1 ------- null}
+ -t 0.34521 -s 0 -d 1 -p tcp -e 1040 -c 1 -i 28 -a 1 -x {0.0 2.0 18 ------- null}
- -t 0.346925 -s 1 -d 2 -p tcp -e 1040 -c 1 -i 18 -a 1 -x {0.0 2.0 11 ------- null}
h -t 0.346925 -s 1 -d 2 -p tcp -e 1040 -c 1 -i 18 -a 1 -x {0.0 2.0 -1 ------- null}
r -t 0.34728 -s 0 -d 1 -p tcp -e 1040 -c 1 -i 25 -a 1 -x {0.0 2.0 16 ------- null}
+ -t 0.34728 -s 1 -d 2 -p tcp -e 1040 -c 1 -i 25 -a 1 -x {0.0 2.0 16 ------- null}
- -t 0.34937 -s 0 -d 1 -p tcp -e 1040 -c 1 -i 28 -a 1 -x {0.0 2.0 18 ------- null}
h -t 0.34937 -s 0 -d 1 -p tcp -e 1040 -c 1 -i 28 -a 1 -x {0.0 2.0 -1 ------- null}
r -t 0.3513 -s 2 -d 1 -p ack -e 40 -c 1 -i 26 -a 1 -x {2.0 0.0 9 ------- null}
+ -t 0.3513 -s 1 -d 0 -p ack -e 40 -c 1 -i 26 -a 1 -x {2.0 0.0 9 ------- null}
- -t 0.3513 -s 1 -d 0 -p ack -e 40 -c 1 -i 26 -a 1 -x {2.0 0.0 9 ------- null}
h -t 0.3513 -s 1 -d 0 -p ack -e 40 -c 1 -i 26 -a 1 -x {2.0 0.0 -1 ------- null}
r -t 0.356925 -s 1 -d 2 -p tcp -e 1040 -c 1 -i 16 -a 1 -x {0.0 2.0 10 ------- null}
+ -t 0.356925 -s 2 -d 1 -p ack -e 40 -c 1 -i 29 -a 1 -x {2.0 0.0 10 ------- null}
- -t 0.356925 -s 2 -d 1 -p ack -e 40 -c 1 -i 29 -a 1 -x {2.0 0.0 10 ------- null}
h -t 0.356925 -s 2 -d 1 -p ack -e 40 -c 1 -i 29 -a 1 -x {2.0 0.0 -1 ------- null}
r -t 0.35937 -s 0 -d 1 -p tcp -e 1040 -c 1 -i 27 -a 1 -x {0.0 2.0 17 ------- null}
+ -t 0.35937 -s 1 -d 2 -p tcp -e 1040 -c 1 -i 27 -a 1 -x {0.0 2.0 17 ------- null}
r -t 0.36146 -s 1 -d 0 -p ack -e 40 -c 1 -i 26 -a 1 -x {2.0 0.0 9 ------- null}
+ -t 0.36146 -s 0 -d 1 -p tcp -e 1040 -c 1 -i 30 -a 1 -x {0.0 2.0 19 ------- null}
- -t 0.36146 -s 0 -d 1 -p tcp -e 1040 -c 1 -i 30 -a 1 -x {0.0 2.0 19 ------- null}
h -t 0.36146 -s 0 -d 1 -p tcp -e 1040 -c 1 -i 30 -a 1 -x {0.0 2.0 -1 ------- null}
+ -t 0.36146 -s 0 -d 1 -p tcp -e 1040 -c 1 -i 31 -a 1 -x {0.0 2.0 20 ------- null}
- -t 0.363175 -s 1 -d 2 -p tcp -e 1040 -c 1 -i 19 -a 1 -x {0.0 2.0 12 ------- null}
h -t 0.363175 -s 1 -d 2 -p tcp -e 1040 -c 1 -i 19 -a 1 -x {0.0 2.0 -1 ------- null}
r -t 0.36353 -s 0 -d 1 -p tcp -e 1040 -c 1 -i 28 -a 1 -x {0.0 2.0 18 ------- null}
+ -t 0.36353 -s 1 -d 2 -p tcp -e 1040 -c 1 -i 28 -a 1 -x {0.0 2.0 18 ------- null}
- -t 0.36562 -s 0 -d 1 -p tcp -e 1040 -c 1 -i 31 -a 1 -x {0.0 2.0 20 ------- null}
h -t 0.36562 -s 0 -d 1 -p tcp -e 1040 -c 1 -i 31 -a 1 -x {0.0 2.0 -1 ------- null}
r -t 0.36755 -s 2 -d 1 -p ack -e 40 -c 1 -i 29 -a 1 -x {2.0 0.0 10 ------- null}
+ -t 0.36755 -s 1 -d 0 -p ack -e 40 -c 1 -i 29 -a 1 -x {2.0 0.0 10 ------- null}
- -t 0.36755 -s 1 -d 0 -p ack -e 40 -c 1 -i 29 -a 1 -x {2.0 0.0 10 ------- null}
h -t 0.36755 -s 1 -d 0 -p ack -e 40 -c 1 -i 29 -a 1 -x {2.0 0.0 -1 ------- null}
r -t 0.373175 -s 1 -d 2 -p tcp -e 1040 -c 1 -i 18 -a 1 -x {0.0 2.0 11 ------- null}
+ -t 0.373175 -s 2 -d 1 -p ack -e 40 -c 1 -i 32 -a 1 -x {2.0 0.0 11 ------- null}
- -t 0.373175 -s 2 -d 1 -p ack -e 40 -c 1 -i 32 -a 1 -x {2.0 0.0 11 ------- null}
h -t 0.373175 -s 2 -d 1 -p ack -e 40 -c 1 -i 32 -a 1 -x {2.0 0.0 -1 ------- null}
r -t 0.37562 -s 0 -d 1 -p tcp -e 1040 -c 1 -i 30 -a 1 -x {0.0 2.0 19 ------- null}
+ -t 0.37562 -s 1 -d 2 -p tcp -e 1040 -c 1 -i 30 -a 1 -x {0.0 2.0 19 ------- null}
r -t 0.37771 -s 1 -d 0 -p ack -e 40 -c 1 -i 29 -a 1 -x {2.0 0.0 10 ------- null}
+ -t 0.37771 -s 0 -d 1 -p tcp -e 1040 -c 1 -i 33 -a 1 -x {0.0 2.0 21 ------- null}
- -t 0.37771 -s 0 -d 1 -p tcp -e 1040 -c 1 -i 33 -a 1 -x {0.0 2.0 21 ------- null}
h -t 0.37771 -s 0 -d 1 -p tcp -e 1040 -c 1 -i 33 -a 1 -x {0.0 2.0 -1 ------- null}
+ -t 0.37771 -s 0 -d 1 -p tcp -e 1040 -c 1 -i 34 -a 1 -x {0.0 2.0 22 ------- null}
- -t 0.379425 -s 1 -d 2 -p tcp -e 1040 -c 1 -i 21 -a 1 -x {0.0 2.0 13 ------- null}
h -t 0.379425 -s 1 -d 2 -p tcp -e 1040 -c 1 -i 21 -a 1 -x {0.0 2.0 -1 ------- null}
r -t 0.37978 -s 0 -d 1 -p tcp -e 1040 -c 1 -i 31 -a 1 -x {0.0 2.0 20 ------- null}
+ -t 0.37978 -s 1 -d 2 -p tcp -e 1040 -c 1 -i 31 -a 1 -x {0.0 2.0 20 ------- null}
- -t 0.38187 -s 0 -d 1 -p tcp -e 1040 -c 1 -i 34 -a 1 -x {0.0 2.0 22 ------- null}
h -t 0.38187 -s 0 -d 1 -p tcp -e 1040 -c 1 -i 34 -a 1 -x {0.0 2.0 -1 ------- null}
r -t 0.3838 -s 2 -d 1 -p ack -e 40 -c 1 -i 32 -a 1 -x {2.0 0.0 11 ------- null}
+ -t 0.3838 -s 1 -d 0 -p ack -e 40 -c 1 -i 32 -a 1 -x {2.0 0.0 11 ------- null}
- -t 0.3838 -s 1 -d 0 -p ack -e 40 -c 1 -i 32 -a 1 -x {2.0 0.0 11 ------- null}
h -t 0.3838 -s 1 -d 0 -p ack -e 40 -c 1 -i 32 -a 1 -x {2.0 0.0 -1 ------- null}
r -t 0.389425 -s 1 -d 2 -p tcp -e 1040 -c 1 -i 19 -a 1 -x {0.0 2.0 12 ------- null}
+ -t 0.389425 -s 2 -d 1 -p ack -e 40 -c 1 -i 35 -a 1 -x {2.0 0.0 12 ------- null}
- -t 0.389425 -s 2 -d 1 -p ack -e 40 -c 1 -i 35 -a 1 -x {2.0 0.0 12 ------- null}
h -t 0.389425 -s 2 -d 1 -p ack -e 40 -c 1 -i 35 -a 1 -x {2.0 0.0 -1 ------- null}
r -t 0.39187 -s 0 -d 1 -p tcp -e 1040 -c 1 -i 33 -a 1 -x {0.0 2.0 21 ------- null}
+ -t 0.39187 -s 1 -d 2 -p tcp -e 1040 -c 1 -i 33 -a 1 -x {0.0 2.0 21 ------- null}
r -t 0.39396 -s 1 -d 0 -p ack -e 40 -c 1 -i 32 -a 1 -x {2.0 0.0 11 ------- null}
+ -t 0.39396 -s 0 -d 1 -p tcp -e 1040 -c 1 -i 36 -a 1 -x {0.0 2.0 23 ------- null}
- -t 0.39396 -s 0 -d 1 -p tcp -e 1040 -c 1 -i 36 -a 1 -x {0.0 2.0 23 ------- null}
h -t 0.39396 -s 0 -d 1 -p tcp -e 1040 -c 1 -i 36 -a 1 -x {0.0 2.0 -1 ------- null}
+ -t 0.39396 -s 0 -d 1 -p tcp -e 1040 -c 1 -i 37 -a 1 -x {0.0 2.0 24 ------- null}
- -t 0.395675 -s 1 -d 2 -p tcp -e 1040 -c 1 -i 22 -a 1 -x {0.0 2.0 14 ------- null}
h -t 0.395675 -s 1 -d 2 -p tcp -e 1040 -c 1 -i 22 -a 1 -x {0.0 2.0 -1 ------- null}
r -t 0.39603 -s 0 -d 1 -p tcp -e 1040 -c 1 -i 34 -a 1 -x {0.0 2.0 22 ------- null}
+ -t 0.39603 -s 1 -d 2 -p tcp -e 1040 -c 1 -i 34 -a 1 -x {0.0 2.0 22 ------- null}
- -t 0.39812 -s 0 -d 1 -p tcp -e 1040 -c 1 -i 37 -a 1 -x {0.0 2.0 24 ------- null}
h -t 0.39812 -s 0 -d 1 -p tcp -e 1040 -c 1 -i 37 -a 1 -x {0.0 2.0 -1 ------- null}
r -t 0.40005 -s 2 -d 1 -p ack -e 40 -c 1 -i 35 -a 1 -x {2.0 0.0 12 ------- null}
+ -t 0.40005 -s 1 -d 0 -p ack -e 40 -c 1 -i 35 -a 1 -x {2.0 0.0 12 ------- null}
- -t 0.40005 -s 1 -d 0 -p ack -e 40 -c 1 -i 35 -a 1 -x {2.0 0.0 12 ------- null}
h -t 0.40005 -s 1 -d 0 -p ack -e 40 -c 1 -i 35 -a 1 -x {2.0 0.0 -1 ------- null}
r -t 0.405675 -s 1 -d 2 -p tcp -e 1040 -c 1 -i 21 -a 1 -x {0.0 2.0 13 ------- null}
+ -t 0.405675 -s 2 -d 1 -p ack -e 40 -c 1 -i 38 -a 1 -x {2.0 0.0 13 ------- null}
- -t 0.405675 -s 2 -d 1 -p ack -e 40 -c 1 -i 38 -a 1 -x {2.0 0.0 13 ------- null}
h -t 0.405675 -s 2 -d 1 -p ack -e 40 -c 1 -i 38 -a 1 -x {2.0 0.0 -1 ------- null}
r -t 0.40812 -s 0 -d 1 -p tcp -e 1040 -c 1 -i 36 -a 1 -x {0.0 2.0 23 ------- null}
+ -t 0.40812 -s 1 -d 2 -p tcp -e 1040 -c 1 -i 36 -a 1 -x {0.0 2.0 23 ------- null}
r -t 0.41021 -s 1 -d 0 -p ack -e 40 -c 1 -i 35 -a 1 -x {2.0 0.0 12 ------- null}
+ -t 0.41021 -s 0 -d 1 -p tcp -e 1040 -c 1 -i 39 -a 1 -x {0.0 2.0 25 ------- null}
- -t 0.41021 -s 0 -d 1 -p tcp -e 1040 -c 1 -i 39 -a 1 -x {0.0 2.0 25 ------- null}
h -t 0.41021 -s 0 -d 1 -p tcp -e 1040 -c 1 -i 39 -a 1 -x {0.0 2.0 -1 ------- null}
+ -t 0.41021 -s 0 -d 1 -p tcp -e 1040 -c 1 -i 40 -a 1 -x {0.0 2.0 26 ------- null}
- -t 0.411925 -s 1 -d 2 -p tcp -e 1040 -c 1 -i 24 -a 1 -x {0.0 2.0 15 ------- null}
h -t 0.411925 -s 1 -d 2 -p tcp -e 1040 -c 1 -i 24 -a 1 -x {0.0 2.0 -1 ------- null}
r -t 0.41228 -s 0 -d 1 -p tcp -e 1040 -c 1 -i 37 -a 1 -x {0.0 2.0 24 ------- null}
+ -t 0.41228 -s 1 -d 2 -p tcp -e 1040 -c 1 -i 37 -a 1 -x {0.0 2.0 24 ------- null}
- -t 0.41437 -s 0 -d 1 -p tcp -e 1040 -c 1 -i 40 -a 1 -x {0.0 2.0 26 ------- null}
h -t 0.41437 -s 0 -d 1 -p tcp -e 1040 -c 1 -i 40 -a 1 -x {0.0 2.0 -1 ------- null}
r -t 0.4163 -s 2 -d 1 -p ack -e 40 -c 1 -i 38 -a 1 -x {2.0 0.0 13 ------- null}
+ -t 0.4163 -s 1 -d 0 -p ack -e 40 -c 1 -i 38 -a 1 -x {2.0 0.0 13 ------- null}
- -t 0.4163 -s 1 -d 0 -p ack -e 40 -c 1 -i 38 -a 1 -x {2.0 0.0 13 ------- null}
h -t 0.4163 -s 1 -d 0 -p ack -e 40 -c 1 -i 38 -a 1 -x {2.0 0.0 -1 ------- null}
r -t 0.421925 -s 1 -d 2 -p tcp -e 1040 -c 1 -i 22 -a 1 -x {0.0 2.0 14 ------- null}
+ -t 0.421925 -s 2 -d 1 -p ack -e 40 -c 1 -i 41 -a 1 -x {2.0 0.0 14 ------- null}
- -t 0.421925 -s 2 -d 1 -p ack -e 40 -c 1 -i 41 -a 1 -x {2.0 0.0 14 ------- null}
h -t 0.421925 -s 2 -d 1 -p ack -e 40 -c 1 -i 41 -a 1 -x {2.0 0.0 -1 ------- null}
r -t 0.42437 -s 0 -d 1 -p tcp -e 1040 -c 1 -i 39 -a 1 -x {0.0 2.0 25 ------- null}
+ -t 0.42437 -s 1 -d 2 -p tcp -e 1040 -c 1 -i 39 -a 1 -x {0.0 2.0 25 ------- null}
d -t 0.42437 -s 1 -d 2 -p tcp -e 1040 -c 1 -i 39 -a 1 -x {0.0 2.0 25 ------- null}
r -t 0.42646 -s 1 -d 0 -p ack -e 40 -c 1 -i 38 -a 1 -x {2.0 0.0 13 ------- null}
+ -t 0.42646 -s 0 -d 1 -p tcp -e 1040 -c 1 -i 42 -a 1 -x {0.0 2.0 27 ------- null}
- -t 0.42646 -s 0 -d 1 -p tcp -e 1040 -c 1 -i 42 -a 1 -x {0.0 2.0 27 ------- null}
h -t 0.42646 -s 0 -d 1 -p tcp -e 1040 -c 1 -i 42 -a 1 -x {0.0 2.0 -1 ------- null}
+ -t 0.42646 -s 0 -d 1 -p tcp -e 1040 -c 1 -i 43 -a 1 -x {0.0 2.0 28 ------- null}
- -t 0.428175 -s 1 -d 2 -p tcp -e 1040 -c 1 -i 25 -a 1 -x {0.0 2.0 16 ------- null}
h -t 0.428175 -s 1 -d 2 -p tcp -e 1040 -c 1 -i 25 -a 1 -x {0.0 2.0 -1 ------- null}
r -t 0.42853 -s 0 -d 1 -p tcp -e 1040 -c 1 -i 40 -a 1 -x {0.0 2.0 26 ------- null}
+ -t 0.42853 -s 1 -d 2 -p tcp -e 1040 -c 1 -i 40 -a 1 -x {0.0 2.0 26 ------- null}
- -t 0.43062 -s 0 -d 1 -p tcp -e 1040 -c 1 -i 43 -a 1 -x {0.0 2.0 28 ------- null}
h -t 0.43062 -s 0 -d 1 -p tcp -e 1040 -c 1 -i 43 -a 1 -x {0.0 2.0 -1 ------- null}
r -t 0.43255 -s 2 -d 1 -p ack -e 40 -c 1 -i 41 -a 1 -x {2.0 0.0 14 ------- null}
+ -t 0.43255 -s 1 -d 0 -p ack -e 40 -c 1 -i 41 -a 1 -x {2.0 0.0 14 ------- null}
- -t 0.43255 -s 1 -d 0 -p ack -e 40 -c 1 -i 41 -a 1 -x {2.0 0.0 14 ------- null}
h -t 0.43255 -s 1 -d 0 -p ack -e 40 -c 1 -i 41 -a 1 -x {2.0 0.0 -1 ------- null}
r -t 0.438175 -s 1 -d 2 -p tcp -e 1040 -c 1 -i 24 -a 1 -x {0.0 2.0 15 ------- null}
+ -t 0.438175 -s 2 -d 1 -p ack -e 40 -c 1 -i 44 -a 1 -x {2.0 0.0 15 ------- null}
- -t 0.438175 -s 2 -d 1 -p ack -e 40 -c 1 -i 44 -a 1 -x {2.0 0.0 15 ------- null}
h -t 0.438175 -s 2 -d 1 -p ack -e 40 -c 1 -i 44 -a 1 -x {2.0 0.0 -1 ------- null}
r -t 0.44062 -s 0 -d 1 -p tcp -e 1040 -c 1 -i 42 -a 1 -x {0.0 2.0 27 ------- null}
+ -t 0.44062 -s 1 -d 2 -p tcp -e 1040 -c 1 -i 42 -a 1 -x {0.0 2.0 27 ------- null}
d -t 0.44062 -s 1 -d 2 -p tcp -e 1040 -c 1 -i 42 -a 1 -x {0.0 2.0 27 ------- null}
r -t 0.44271 -s 1 -d 0 -p ack -e 40 -c 1 -i 41 -a 1 -x {2.0 0.0 14 ------- null}
+ -t 0.44271 -s 0 -d 1 -p tcp -e 1040 -c 1 -i 45 -a 1 -x {0.0 2.0 29 ------- null}
- -t 0.44271 -s 0 -d 1 -p tcp -e 1040 -c 1 -i 45 -a 1 -x {0.0 2.0 29 ------- null}
h -t 0.44271 -s 0 -d 1 -p tcp -e 1040 -c 1 -i 45 -a 1 -x {0.0 2.0 -1 ------- null}
+ -t 0.44271 -s 0 -d 1 -p tcp -e 1040 -c 1 -i 46 -a 1 -x {0.0 2.0 30 ------- null}
- -t 0.444425 -s 1 -d 2 -p tcp -e 1040 -c 1 -i 27 -a 1 -x {0.0 2.0 17 ------- null}
h -t 0.444425 -s 1 -d 2 -p tcp -e 1040 -c 1 -i 27 -a 1 -x {0.0 2.0 -1 ------- null}
r -t 0.44478 -s 0 -d 1 -p tcp -e 1040 -c 1 -i 43 -a 1 -x {0.0 2.0 28 ------- null}
+ -t 0.44478 -s 1 -d 2 -p tcp -e 1040 -c 1 -i 43 -a 1 -x {0.0 2.0 28 ------- null}
- -t 0.44687 -s 0 -d 1 -p tcp -e 1040 -c 1 -i 46 -a 1 -x {0.0 2.0 30 ------- null}
h -t 0.44687 -s 0 -d 1 -p tcp -e 1040 -c 1 -i 46 -a 1 -x {0.0 2.0 -1 ------- null}
r -t 0.4488 -s 2 -d 1 -p ack -e 40 -c 1 -i 44 -a 1 -x {2.0 0.0 15 ------- null}
+ -t 0.4488 -s 1 -d 0 -p ack -e 40 -c 1 -i 44 -a 1 -x {2.0 0.0 15 ------- null}
- -t 0.4488 -s 1 -d 0 -p ack -e 40 -c 1 -i 44 -a 1 -x {2.0 0.0 15 ------- null}
h -t 0.4488 -s 1 -d 0 -p ack -e 40 -c 1 -i 44 -a 1 -x {2.0 0.0 -1 ------- null}
r -t 0.454425 -s 1 -d 2 -p tcp -e 1040 -c 1 -i 25 -a 1 -x {0.0 2.0 16 ------- null}
+ -t 0.454425 -s 2 -d 1 -p ack -e 40 -c 1 -i 47 -a 1 -x {2.0 0.0 16 ------- null}
- -t 0.454425 -s 2 -d 1 -p ack -e 40 -c 1 -i 47 -a 1 -x {2.0 0.0 16 ------- null}
h -t 0.454425 -s 2 -d 1 -p ack -e 40 -c 1 -i 47 -a 1 -x {2.0 0.0 -1 ------- null}
r -t 0.45687 -s 0 -d 1 -p tcp -e 1040 -c 1 -i 45 -a 1 -x {0.0 2.0 29 ------- null}
+ -t 0.45687 -s 1 -d 2 -p tcp -e 1040 -c 1 -i 45 -a 1 -x {0.0 2.0 29 ------- null}
d -t 0.45687 -s 1 -d 2 -p tcp -e 1040 -c 1 -i 45 -a 1 -x {0.0 2.0 29 ------- null}
r -t 0.45896 -s 1 -d 0 -p ack -e 40 -c 1 -i 44 -a 1 -x {2.0 0.0 15 ------- null}
+ -t 0.45896 -s 0 -d 1 -p tcp -e 1040 -c 1 -i 48 -a 1 -x {0.0 2.0 31 ------- null}
- -t 0.45896 -s 0 -d 1 -p tcp -e 1040 -c 1 -i 48 -a 1 -x {0.0 2.0 31 ------- null}
h -t 0.45896 -s 0 -d 1 -p tcp -e 1040 -c 1 -i 48 -a 1 -x {0.0 2.0 -1 ------- null}
+ -t 0.45896 -s 0 -d 1 -p tcp -e 1040 -c 1 -i 49 -a 1 -x {0.0 2.0 32 ------- null}
- -t 0.460675 -s 1 -d 2 -p tcp -e 1040 -c 1 -i 28 -a 1 -x {0.0 2.0 18 ------- null}
h -t 0.460675 -s 1 -d 2 -p tcp -e 1040 -c 1 -i 28 -a 1 -x {0.0 2.0 -1 ------- null}
r -t 0.46103 -s 0 -d 1 -p tcp -e 1040 -c 1 -i 46 -a 1 -x {0.0 2.0 30 ------- null}
+ -t 0.46103 -s 1 -d 2 -p tcp -e 1040 -c 1 -i 46 -a 1 -x {0.0 2.0 30 ------- null}
- -t 0.46312 -s 0 -d 1 -p tcp -e 1040 -c 1 -i 49 -a 1 -x {0.0 2.0 32 ------- null}
h -t 0.46312 -s 0 -d 1 -p tcp -e 1040 -c 1 -i 49 -a 1 -x {0.0 2.0 -1 ------- null}
r -t 0.46505 -s 2 -d 1 -p ack -e 40 -c 1 -i 47 -a 1 -x {2.0 0.0 16 ------- null}
+ -t 0.46505 -s 1 -d 0 -p ack -e 40 -c 1 -i 47 -a 1 -x {2.0 0.0 16 ------- null}
- -t 0.46505 -s 1 -d 0 -p ack -e 40 -c 1 -i 47 -a 1 -x {2.0 0.0 16 ------- null}
h -t 0.46505 -s 1 -d 0 -p ack -e 40 -c 1 -i 47 -a 1 -x {2.0 0.0 -1 ------- null}
r -t 0.470675 -s 1 -d 2 -p tcp -e 1040 -c 1 -i 27 -a 1 -x {0.0 2.0 17 ------- null}
+ -t 0.470675 -s 2 -d 1 -p ack -e 40 -c 1 -i 50 -a 1 -x {2.0 0.0 17 ------- null}
- -t 0.470675 -s 2 -d 1 -p ack -e 40 -c 1 -i 50 -a 1 -x {2.0 0.0 17 ------- null}
h -t 0.470675 -s 2 -d 1 -p ack -e 40 -c 1 -i 50 -a 1 -x {2.0 0.0 -1 ------- null}
r -t 0.47312 -s 0 -d 1 -p tcp -e 1040 -c 1 -i 48 -a 1 -x {0.0 2.0 31 ------- null}
+ -t 0.47312 -s 1 -d 2 -p tcp -e 1040 -c 1 -i 48 -a 1 -x {0.0 2.0 31 ------- null}
d -t 0.47312 -s 1 -d 2 -p tcp -e 1040 -c 1 -i 48 -a 1 -x {0.0 2.0 31 ------- null}