+ 0.1 0 1 tcp 40 ------- 1 0.0 2.0 0 0
- 0.1 0 1 tcp 40 ------- 1 0.0 2.0 0 0
r 0.11016 0 1 tcp 40 ------- 1 0.0 2.0 0 0
+ 0.11016 1 2 tcp 40 ------- 1 0.0 2.0 0 0
- 0.11016 1 2 tcp 40 ------- 1 0.0 2.0 0 0
r 0.120785 1 2 tcp 40 ------- 1 0.0 2.0 0 0
+ 0.120785 2 1 ack 40 ------- 1 2.0 0.0 0 1
- 0.120785 2 1 ack 40 ------- 1 2.0 0.0 0 1
r 0.13141 2 1 ack 40 ------- 1 2.0 0.0 0 1
+ 0.13141 1 0 ack 40 ------- 1 2.0 0.0 0 1
- 0.13141 1 0 ack 40 ------- 1 2.0 0.0 0 1
r 0.14157 1 0 ack 40 ------- 1 2.0 0.0 0 1
+ 0.14157 0 1 tcp 1040 ------- 1 0.0 2.0 1 2
- 0.14157 0 1 tcp 1040 ------- 1 0.0 2.0 1 2
+ 0.14157 0 1 tcp 1040 ------- 1 0.0 2.0 2 3
- 0.14573 0 1 tcp 1040 ------- 1 0.0 2.0 2 3
r 0.15573 0 1 tcp 1040 ------- 1 0.0 2.0 1 2
+ 0.15573 1 2 tcp 1040 ------- 1 0.0 2.0 1 2
- 0.15573 1 2 tcp 1040 ------- 1 0.0 2.0 1 2
r 0.15989 0 1 tcp 1040 ------- 1 0.0 2.0 2 3
+ 0.15989 1 2 tcp 1040 ------- 1 0.0 2.0 2 3
- 0.17198 1 2 tcp 1040 ------- 1 0.0 2.0 2 3
r 0.18198 1 2 tcp 1040 ------- 1 0.0 2.0 1 2
+ 0.18198 2 1 ack 40 ------- 1 2.0 0.0 1 4
- 0.18198 2 1 ack 40 ------- 1 2.0 0.0 1 4
r 0.192605 2 1 ack 40 ------- 1 2.0 0.0 1 4
+ 0.192605 1 0 ack 40 ------- 1 2.0 0.0 1 4
- 0.192605 1 0 ack 40 ------- 1 2.0 0.0 1 4
r 0.19823 1 2 tcp 1040 ------- 1 0.0 2.0 2 3
+ 0.19823 2 1 ack 40 ------- 1 2.0 0.0 2 5
- 0.19823 2 1 ack 40 ------- 1 2.0 0.0 2 5
r 0.202765 1 0 ack 40 ------- 1 2.0 0.0 1 4
+ 0.202765 0 1 tcp 1040 ------- 1 0.0 2.0 3 6
- 0.202765 0 1 tcp 1040 ------- 1 0.0 2.0 3 6
+ 0.202765 0 1 tcp 1040 ------- 1 0.0 2.0 4 7
- 0.206925 0 1 tcp 1040 ------- 1 0.0 2.0 4 7
r 0.208855 2 1 ack 40 ------- 1 2.0 0.0 2 5
+ 0.208855 1 0 ack 40 ------- 1 2.0 0.0 2 5
- 0.208855 1 0 ack 40 ------- 1 2.0 0.0 2 5
r 0.216925 0 1 tcp 1040 ------- 1 0.0 2.0 3 6
+ 0.216925 1 2 tcp 1040 ------- 1 0.0 2.0 3 6
- 0.216925 1 2 tcp 1040 ------- 1 0.0 2.0 3 6
r 0.219015 1 0 ack 40 ------- 1 2.0 0.0 2 5
+ 0.219015 0 1 tcp 1040 ------- 1 0.0 2.0 5 8
- 0.219015 0 1 tcp 1040 ------- 1 0.0 2.0 5 8
+ 0.219015 0 1 tcp 1040 ------- 1 0.0 2.0 6 9
r 0.221085 0 1 tcp 1040 ------- 1 0.0 2.0 4 7
+ 0.221085 1 2 tcp 1040 ------- 1 0.0 2.0 4 7
- 0.223175 0 1 tcp 1040 ------- 1 0.0 2.0 6 9
- 0.233175 1 2 tcp 1040 ------- 1 0.0 2.0 4 7
r 0.233175 0 1 tcp 1040 ------- 1 0.0 2.0 5 8
+ 0.233175 1 2 tcp 1040 ------- 1 0.0 2.0 5 8
r 0.237335 0 1 tcp 1040 ------- 1 0.0 2.0 6 9
+ 0.237335 1 2 tcp 1040 ------- 1 0.0 2.0 6 9
r 0.243175 1 2 tcp 1040 ------- 1 0.0 2.0 3 6
+ 0.243175 2 1 ack 40 ------- 1 2.0 0.0 3 10
- 0.243175 2 1 ack 40 ------- 1 2.0 0.0 3 10
- 0.249425 1 2 tcp 1040 ------- 1 0.0 2.0 5 8
r 0.2538 2 1 ack 40 ------- 1 2.0 0.0 3 10
+ 0.2538 1 0 ack 40 ------- 1 2.0 0.0 3 10
- 0.2538 1 0 ack 40 ------- 1 2.0 0.0 3 10
r 0.259425 1 2 tcp 1040 ------- 1 0.0 2.0 4 7
+ 0.259425 2 1 ack 40 ------- 1 2.0 0.0 4 11
- 0.259425 2 1 ack 40 ------- 1 2.0 0.0 4 11
r 0.26396 1 0 ack 40 ------- 1 2.0 0.0 3 10
+ 0.26396 0 1 tcp 1040 ------- 1 0.0 2.0 7 12
- 0.26396 0 1 tcp 1040 ------- 1 0.0 2.0 7 12
+ 0.26396 0 1 tcp 1040 ------- 1 0.0 2.0 8 13
- 0.265675 1 2 tcp 1040 ------- 1 0.0 2.0 6 9
- 0.26812 0 1 tcp 1040 ------- 1 0.0 2.0 8 13
r 0.27005 2 1 ack 40 ------- 1 2.0 0.0 4 11
+ 0.27005 1 0 ack 40 ------- 1 2.0 0.0 4 11
- 0.27005 1 0 ack 40 ------- 1 2.0 0.0 4 11
r 0.275675 1 2 tcp 1040 ------- 1 0.0 2.0 5 8
+ 0.275675 2 1 ack 40 ------- 1 2.0 0.0 5 14
- 0.275675 2 1 ack 40 ------- 1 2.0 0.0 5 14
r 0.27812 0 1 tcp 1040 ------- 1 0.0 2.0 7 12
+ 0.27812 1 2 tcp 1040 ------- 1 0.0 2.0 7 12
r 0.28021 1 0 ack 40 ------- 1 2.0 0.0 4 11
+ 0.28021 0 1 tcp 1040 ------- 1 0.0 2.0 9 15
- 0.28021 0 1 tcp 1040 ------- 1 0.0 2.0 9 15
+ 0.28021 0 1 tcp 1040 ------- 1 0.0 2.0 10 16
- 0.281925 1 2 tcp 1040 ------- 1 0.0 2.0 7 12
r 0.28228 0 1 tcp 1040 ------- 1 0.0 2.0 8 13
+ 0.28228 1 2 tcp 1040 ------- 1 0.0 2.0 8 13
- 0.28437 0 1 tcp 1040 ------- 1 0.0 2.0 10 16
r 0.2863 2 1 ack 40 ------- 1 2.0 0.0 5 14
+ 0.2863 1 0 ack 40 ------- 1 2.0 0.0 5 14
- 0.2863 1 0 ack 40 ------- 1 2.0 0.0 5 14
r 0.291925 1 2 tcp 1040 ------- 1 0.0 2.0 6 9
+ 0.291925 2 1 ack 40 ------- 1 2.0 0.0 6 17
- 0.291925 2 1 ack 40 ------- 1 2.0 0.0 6 17
r 0.29437 0 1 tcp 1040 ------- 1 0.0 2.0 9 15
+ 0.29437 1 2 tcp 1040 ------- 1 0.0 2.0 9 15
r 0.29646 1 0 ack 40 ------- 1 2.0 0.0 5 14
+ 0.29646 0 1 tcp 1040 ------- 1 0.0 2.0 11 18
- 0.29646 0 1 tcp 1040 ------- 1 0.0 2.0 11 18
+ 0.29646 0 1 tcp 1040 ------- 1 0.0 2.0 12 19
- 0.298175 1 2 tcp 1040 ------- 1 0.0 2.0 8 13
r 0.29853 0 1 tcp 1040 ------- 1 0.0 2.0 10 16
+ 0.29853 1 2 tcp 1040 ------- 1 0.0 2.0 10 16
- 0.30062 0 1 tcp 1040 ------- 1 0.0 2.0 12 19
r 0.30255 2 1 ack 40 ------- 1 2.0 0.0 6 17
+ 0.30255 1 0 ack 40 ------- 1 2.0 0.0 6 17
- 0.30255 1 0 ack 40 ------- 1 2.0 0.0 6 17
r 0.308175 1 2 tcp 1040 ------- 1 0.0 2.0 7 12
+ 0.308175 2 1 ack 40 ------- 1 2.0 0.0 7 20
- 0.308175 2 1 ack 40 ------- 1 2.0 0.0 7 20
r 0.31062 0 1 tcp 1040 ------- 1 0.0 2.0 11 18
+ 0.31062 1 2 tcp 1040 ------- 1 0.0 2.0 11 18
r 0.31271 1 0 ack 40 ------- 1 2.0 0.0 6 17
+ 0.31271 0 1 tcp 1040 ------- 1 0.0 2.0 13 21
- 0.31271 0 1 tcp 1040 ------- 1 0.0 2.0 13 21
+ 0.31271 0 1 tcp 1040 ------- 1 0.0 2.0 14 22
- 0.314425 1 2 tcp 1040 ------- 1 0.0 2.0 9 15
r 0.31478 0 1 tcp 1040 ------- 1 0.0 2.0 12 19
+ 0.31478 1 2 tcp 1040 ------- 1 0.0 2.0 12 19
- 0.31687 0 1 tcp 1040 ------- 1 0.0 2.0 14 22
r 0.3188 2 1 ack 40 ------- 1 2.0 0.0 7 20
+ 0.3188 1 0 ack 40 ------- 1 2.0 0.0 7 20
- 0.3188 1 0 ack 40 ------- 1 2.0 0.0 7 20
r 0.324425 1 2 tcp 1040 ------- 1 0.0 2.0 8 13
+ 0.324425 2 1 ack 40 ------- 1 2.0 0.0 8 23
- 0.324425 2 1 ack 40 ------- 1 2.0 0.0 8 23
r 0.32687 0 1 tcp 1040 ------- 1 0.0 2.0 13 21
+ 0.32687 1 2 tcp 1040 ------- 1 0.0 2.0 13 21
r 0.32896 1 0 ack 40 ------- 1 2.0 0.0 7 20
+ 0.32896 0 1 tcp 1040 ------- 1 0.0 2.0 15 24
- 0.32896 0 1 tcp 1040 ------- 1 0.0 2.0 15 24
+ 0.32896 0 1 tcp 1040 ------- 1 0.0 2.0 16 25
- 0.330675 1 2 tcp 1040 ------- 1 0.0 2.0 10 16
r 0.33103 0 1 tcp 1040 ------- 1 0.0 2.0 14 22
+ 0.33103 1 2 tcp 1040 ------- 1 0.0 2.0 14 22
- 0.33312 0 1 tcp 1040 ------- 1 0.0 2.0 16 25
r 0.33505 2 1 ack 40 ------- 1 2.0 0.0 8 23
+ 0.33505 1 0 ack 40 ------- 1 2.0 0.0 8 23
- 0.33505 1 0 ack 40 ------- 1 2.0 0.0 8 23
r 0.340675 1 2 tcp 1040 ------- 1 0.0 2.0 9 15
+ 0.340675 2 1 ack 40 ------- 1 2.0 0.0 9 26
- 0.340675 2 1 ack 40 ------- 1 2.0 0.0 9 26
r 0.34312 0 1 tcp 1040 ------- 1 0.0 2.0 15 24
+ 0.34312 1 2 tcp 1040 ------- 1 0.0 2.0 15 24
r 0.34521 1 0 ack 40 ------- 1 2.0 0.0 8 23
+ 0.34521 0 1 tcp 1040 ------- 1 0.0 2.0 17 27
- 0.34521 0 1 tcp 1040 ------- 1 0.0 2.0 17 27
+ 0.34521 0 1 tcp 1040 ------- 1 0.0 2.0 18 28
- 0.346925 1 2 tcp 1040 ------- 1 0.0 2.0 11 18
r 0.34728 0 1 tcp 1040 ------- 1 0.0 2.0 16 25
+ 0.34728 1 2 tcp 1040 ------- 1 0.0 2.0 16 25
- 0.34937 0 1 tcp 1040 ------- 1 0.0 2.0 18 28
r 0.3513 2 1 ack 40 ------- 1 2.0 0.0 9 26
+ 0.3513 1 0 ack 40 ------- 1 2.0 0.0 9 26
- 0.3513 1 0 ack 40 ------- 1 2.0 0.0 9 26
r 0.356925 1 2 tcp 1040 ------- 1 0.0 2.0 10 16
+ 0.356925 2 1 ack 40 ------- 1 2.0 0.0 10 29
- 0.356925 2 1 ack 40 ------- 1 2.0 0.0 10 29
r 0.35937 0 1 tcp 1040 ------- 1 0.0 2.0 17 27
+ 0.35937 1 2 tcp 1040 ------- 1 0.0 2.0 17 27
r 0.36146 1 0 ack 40 ------- 1 2.0 0.0 9 26
+ 0.36146 0 1 tcp 1040 ------- 1 0.0 2.0 19 30
- 0.36146 0 1 tcp 1040 ------- 1 0.0 2.0 19 30
+ 0.36146 0 1 tcp 1040 ------- 1 0.0 2.0 20 31
- 0.363175 1 2 tcp 1040 ------- 1 0.0 2.0 12 19
r 0.36353 0 1 tcp 1040 ------- 1 0.0 2.0 18 28
+ 0.36353 1 2 tcp 1040 ------- 1 0.0 2.0 18 28
- 0.36562 0 1 tcp 1040 ------- 1 0.0 2.0 20 31
r 0.36755 2 1 ack 40 ------- 1 2.0 0.0 10 29
+ 0.36755 1 0 ack 40 ------- 1 2.0 0.0 10 29
- 0.36755 1 0 ack 40 ------- 1 2.0 0.0 10 29
r 0.373175 1 2 tcp 1040 ------- 1 0.0 2.0 11 18
+ 0.373175 2 1 ack 40 ------- 1 2.0 0.0 11 32
- 0.373175 2 1 ack 40 ------- 1 2.0 0.0 11 32
r 0.37562 0 1 tcp 1040 ------- 1 0.0 2.0 19 30
+ 0.37562 1 2 tcp 1040 ------- 1 0.0 2.0 19 30
r 0.37771 1 0 ack 40 ------- 1 2.0 0.0 10 29
+ 0.37771 0 1 tcp 1040 ------- 1 0.0 2.0 21 33
- 0.37771 0 1 tcp 1040 ------- 1 0.0 2.0 21 33
+ 0.37771 0 1 tcp 1040 ------- 1 0.0 2.0 22 34
- 0.379425 1 2 tcp 1040 ------- 1 0.0 2.0 13 21
r 0.37978 0 1 tcp 1040 ------- 1 0.0 2.0 20 31
+ 0.37978 1 2 tcp 1040 ------- 1 0.0 2.0 20 31
- 0.38187 0 1 tcp 1040 ------- 1 0.0 2.0 22 34
r 0.3838 2 1 ack 40 ------- 1 2.0 0.0 11 32
+ 0.3838 1 0 ack 40 ------- 1 2.0 0.0 11 32
- 0.3838 1 0 ack 40 ------- 1 2.0 0.0 11 32
r 0.389425 1 2 tcp 1040 ------- 1 0.0 2.0 12 19
+ 0.389425 2 1 ack 40 ------- 1 2.0 0.0 12 35
- 0.389425 2 1 ack 40 ------- 1 2.0 0.0 12 35
r 0.39187 0 1 tcp 1040 ------- 1 0.0 2.0 21 33
+ 0.39187 1 2 tcp 1040 ------- 1 0.0 2.0 21 33
r 0.39396 1 0 ack 40 ------- 1 2.0 0.0 11 32
+ 0.39396 0 1 tcp 1040 ------- 1 0.0 2.0 23 36
- 0.39396 0 1 tcp 1040 ------- 1 0.0 2.0 23 36
+ 0.39396 0 1 tcp 1040 ------- 1 0.0 2.0 24 37
- 0.395675 1 2 tcp 1040 ------- 1 0.0 2.0 14 22
r 0.39603 0 1 tcp 1040 ------- 1 0.0 2.0 22 34
+ 0.39603 1 2 tcp 1040 ------- 1 0.0 2.0 22 34
- 0.39812 0 1 tcp 1040 ------- 1 0.0 2.0 24 37
r 0.40005 2 1 ack 40 ------- 1 2.0 0.0 12 35
+ 0.40005 1 0 ack 40 ------- 1 2.0 0.0 12 35
- 0.40005 1 0 ack 40 ------- 1 2.0 0.0 12 35
r 0.405675 1 2 tcp 1040 ------- 1 0.0 2.0 13 21
+ 0.405675 2 1 ack 40 ------- 1 2.0 0.0 13 38
- 0.405675 2 1 ack 40 ------- 1 2.0 0.0 13 38
r 0.40812 0 1 tcp 1040 ------- 1 0.0 2.0 23 36
+ 0.40812 1 2 tcp 1040 ------- 1 0.0 2.0 23 36
r 0.41021 1 0 ack 40 ------- 1 2.0 0.0 12 35
+ 0.41021 0 1 tcp 1040 ------- 1 0.0 2.0 25 39
- 0.41021 0 1 tcp 1040 ------- 1 0.0 2.0 25 39
+ 0.41021 0 1 tcp 1040 ------- 1 0.0 2.0 26 40
- 0.411925 1 2 tcp 1040 ------- 1 0.0 2.0 15 24
r 0.41228 0 1 tcp 1040 ------- 1 0.0 2.0 24 37
+ 0.41228 1 2 tcp 1040 ------- 1 0.0 2.0 24 37
- 0.41437 0 1 tcp 1040 ------- 1 0.0 2.0 26 40
r 0.4163 2 1 ack 40 ------- 1 2.0 0.0 13 38
+ 0.4163 1 0 ack 40 ------- 1 2.0 0.0 13 38
- 0.4163 1 0 ack 40 ------- 1 2.0 0.0 13 38
r 0.421925 1 2 tcp 1040 ------- 1 0.0 2.0 14 22
+ 0.421925 2 1 ack 40 ------- 1 2.0 0.0 14 41
- 0.421925 2 1 ack 40 ------- 1 2.0 0.0 14 41
r 0.42437 0 1 tcp 1040 ------- 1 0.0 2.0 25 39
+ 0.42437 1 2 tcp 1040 ------- 1 0.0 2.0 25 39
d 0.42437 1 2 tcp 1040 ------- 1 0.0 2.0 25 39
r 0.42646 1 0 ack 40 ------- 1 2.0 0.0 13 38
+ 0.42646 0 1 tcp 1040 ------- 1 0.0 2.0 27 42
- 0.42646 0 1 tcp 1040 ------- 1 0.0 2.0 27 42
+ 0.42646 0 1 tcp 1040 ------- 1 0.0 2.0 28 43
- 0.428175 1 2 tcp 1040 ------- 1 0.0 2.0 16 25
r 0.42853 0 1 tcp 1040 ------- 1 0.0 2.0 26 40
+ 0.42853 1 2 tcp 1040 ------- 1 0.0 2.0 26 40
- 0.43062 0 1 tcp 1040 ------- 1 0.0 2.0 28 43
r 0.43255 2 1 ack 40 ------- 1 2.0 0.0 14 41
+ 0.43255 1 0 ack 40 ------- 1 2.0 0.0 14 41
- 0.43255 1 0 ack 40 ------- 1 2.0 0.0 14 41
r 0.438175 1 2 tcp 1040 ------- 1 0.0 2.0 15 24
+ 0.438175 2 1 ack 40 ------- 1 2.0 0.0 15 44
- 0.438175 2 1 ack 40 ------- 1 2.0 0.0 15 44
r 0.44062 0 1 tcp 1040 ------- 1 0.0 2.0 27 42
+ 0.44062 1 2 tcp 1040 ------- 1 0.0 2.0 27 42
d 0.44062 1 2 tcp 1040 ------- 1 0.0 2.0 27 42
r 0.44271 1 0 ack 40 ------- 1 2.0 0.0 14 41
+ 0.44271 0 1 tcp 1040 ------- 1 0.0 2.0 29 45
- 0.44271 0 1 tcp 1040 ------- 1 0.0 2.0 29 45
+ 0.44271 0 1 tcp 1040 ------- 1 0.0 2.0 30 46
- 0.444425 1 2 tcp 1040 ------- 1 0.0 2.0 17 27
r 0.44478 0 1 tcp 1040 ------- 1 0.0 2.0 28 43
+ 0.44478 1 2 tcp 1040 ------- 1 0.0 2.0 28 43
- 0.44687 0 1 tcp 1040 ------- 1 0.0 2.0 30 46
r 0.4488 2 1 ack 40 ------- 1 2.0 0.0 15 44
+ 0.4488 1 0 ack 40 ------- 1 2.0 0.0 15 44
- 0.4488 1 0 ack 40 ------- 1 2.0 0.0 15 44
r 0.454425 1 2 tcp 1040 ------- 1 0.0 2.0 16 25
+ 0.454425 2 1 ack 40 ------- 1 2.0 0.0 16 47
- 0.454425 2 1 ack 40 ------- 1 2.0 0.0 16 47
r 0.45687 0 1 tcp 1040 ------- 1 0.0 2.0 29 45
+ 0.45687 1 2 tcp 1040 ------- 1 0.0 2.0 29 45
d 0.45687 1 2 tcp 1040 ------- 1 0.0 2.0 29 45
r 0.45896 1 0 ack 40 ------- 1 2.0 0.0 15 44
+ 0.45896 0 1 tcp 1040 ------- 1 0.0 2.0 31 48
- 0.45896 0 1 tcp 1040 ------- 1 0.0 2.0 31 48
+ 0.45896 0 1 tcp 1040 ------- 1 0.0 2.0 32 49
- 0.460675 1 2 tcp 1040 ------- 1 0.0 2.0 18 28
r 0.46103 0 1 tcp 1040 ------- 1 0.0 2.0 30 46
+ 0.46103 1 2 tcp 1040 ------- 1 0.0 2.0 30 46
- 0.46312 0 1 tcp 1040 ------- 1 0.0 2.0 32 49
r 0.46505 2 1 ack 40 ------- 1 2.0 0.0 16 47
+ 0.46505 1 0 ack 40 ------- 1 2.0 0.0 16 47
- 0.46505 1 0 ack 40 ------- 1 2.0 0.0 16 47
r 0.470675 1 2 tcp 1040 ------- 1 0.0 2.0 17 27
+ 0.470675 2 1 ack 40 ------- 1 2.0 0.0 17 50
- 0.470675 2 1 ack 40 ------- 1 2.0 0.0 17 50
r 0.47312 0 1 tcp 1040 ------- 1 0.0 2.0 31 48
+ 0.47312 1 2 tcp 1040 ------- 1 0.0 2.0 31 48
d 0.47312 1 2 tcp 1040 ------- 1 0.0 2.0 31 48
r 0.47521 1 0 ack 40 ------- 1 2.0 0.0 16 47
+ 0.47521 0 1 tcp 1040 ------- 1 0.0 2.0 33 51
- 0.47521 0 1 tcp 1040 ------- 1 0.0 2.0 33 51
+ 0.47521 0 1 tcp 1040 ------- 1 0.0 2.0 34 52
- 0.476925 1 2 tcp 1040 ------- 1 0.0 2.0 19 30
r 0.47728 0 1 tcp 1040 ------- 1 0.0 2.0 32 49
+ 0.47728 1 2 tcp 1040 ------- 1 0.0 2.0 32 49
- 0.47937 0 1 tcp 1040 ------- 1 0.0 2.0 34 52
r 0.4813 2 1 ack 40 ------- 1 2.0 0.0 17 50
+ 0.4813 1 0 ack 40 ------- 1 2.0 0.0 17 50
- 0.4813 1 0 ack 40 ------- 1 2.0 0.0 17 50
r 0.486925 1 2 tcp 1040 ------- 1 0.0 2.0 18 28
+ 0.486925 2 1 ack 40 ------- 1 2.0 0.0 18 53
- 0.486925 2 1 ack 40 ------- 1 2.0 0.0 18 53
r 0.48937 0 1 tcp 1040 ------- 1 0.0 2.0 33 51
+ 0.48937 1 2 tcp 1040 ------- 1 0.0 2.0 33 51
d 0.48937 1 2 tcp 1040 ------- 1 0.0 2.0 33 51
r 0.49146 1 0 ack 40 ------- 1 2.0 0.0 17 50
+ 0.49146 0 1 tcp 1040 ------- 1 0.0 2.0 35 54
- 0.49146 0 1 tcp 1040 ------- 1 0.0 2.0 35 54
+ 0.49146 0 1 tcp 1040 ------- 1 0.0 2.0 36 55
- 0.493175 1 2 tcp 1040 ------- 1 0.0 2.0 20 31
r 0.49353 0 1 tcp 1040 ------- 1 0.0 2.0 34 52
+ 0.49353 1 2 tcp 1040 ------- 1 0.0 2.0 34 52
- 0.49562 0 1 tcp 1040 ------- 1 0.0 2.0 36 55
r 0.49755 2 1 ack 40 ------- 1 2.0 0.0 18 53
+ 0.49755 1 0 ack 40 ------- 1 2.0 0.0 18 53
- 0.49755 1 0 ack 40 ------- 1 2.0 0.0 18 53
r 0.503175 1 2 tcp 1040 ------- 1 0.0 2.0 19 30
+ 0.503175 2 1 ack 40 ------- 1 2.0 0.0 19 56
- 0.503175 2 1 ack 40 ------- 1 2.0 0.0 19 56
r 0.50562 0 1 tcp 1040 ------- 1 0.0 2.0 35 54
+ 0.50562 1 2 tcp 1040 ------- 1 0.0 2.0 35 54
d 0.50562 1 2 tcp 1040 ------- 1 0.0 2.0 35 54
r 0.50771 1 0 ack 40 ------- 1 2.0 0.0 18 53
+ 0.50771 0 1 tcp 1040 ------- 1 0.0 2.0 37 57
- 0.50771 0 1 tcp 1040 ------- 1 0.0 2.0 37 57
+ 0.50771 0 1 tcp 1040 ------- 1 0.0 2.0 38 58
- 0.509425 1 2 tcp 1040 ------- 1 0.0 2.0 21 33
r 0.50978 0 1 tcp 1040 ------- 1 0.0 2.0 36 55
+ 0.50978 1 2 tcp 1040 ------- 1 0.0 2.0 36 55
- 0.51187 0 1 tcp 1040 ------- 1 0.0 2.0 38 58
r 0.5138 2 1 ack 40 ------- 1 2.0 0.0 19 56
+ 0.5138 1 0 ack 40 ------- 1 2.0 0.0 19 56
- 0.5138 1 0 ack 40 ------- 1 2.0 0.0 19 56
r 0.519425 1 2 tcp 1040 ------- 1 0.0 2.0 20 31
+ 0.519425 2 1 ack 40 ------- 1 2.0 0.0 20 59
- 0.519425 2 1 ack 40 ------- 1 2.0 0.0 20 59
r 0.52187 0 1 tcp 1040 ------- 1 0.0 2.0 37 57
+ 0.52187 1 2 tcp 1040 ------- 1 0.0 2.0 37 57
d 0.52187 1 2 tcp 1040 ------- 1 0.0 2.0 37 57
r 0.52396 1 0 ack 40 ------- 1 2.0 0.0 19 56
+ 0.52396 0 1 tcp 1040 ------- 1 0.0 2.0 39 60
- 0.52396 0 1 tcp 1040 ------- 1 0.0 2.0 39 60
- 0.525675 1 2 tcp 1040 ------- 1 0.0 2.0 22 34
r 0.52603 0 1 tcp 1040 ------- 1 0.0 2.0 38 58
+ 0.52603 1 2 tcp 1040 ------- 1 0.0 2.0 38 58
r 0.53005 2 1 ack 40 ------- 1 2.0 0.0 20 59
+ 0.53005 1 0 ack 40 ------- 1 2.0 0.0 20 59
- 0.53005 1 0 ack 40 ------- 1 2.0 0.0 20 59
r 0.535675 1 2 tcp 1040 ------- 1 0.0 2.0 21 33
+ 0.535675 2 1 ack 40 ------- 1 2.0 0.0 21 61
- 0.535675 2 1 ack 40 ------- 1 2.0 0.0 21 61
r 0.53812 0 1 tcp 1040 ------- 1 0.0 2.0 39 60
+ 0.53812 1 2 tcp 1040 ------- 1 0.0 2.0 39 60
d 0.53812 1 2 tcp 1040 ------- 1 0.0 2.0 39 60
r 0.54021 1 0 ack 40 ------- 1 2.0 0.0 20 59
+ 0.54021 0 1 tcp 1040 ------- 1 0.0 2.0 40 62
- 0.54021 0 1 tcp 1040 ------- 1 0.0 2.0 40 62
- 0.541925 1 2 tcp 1040 ------- 1 0.0 2.0 23 36
r 0.5463 2 1 ack 40 ------- 1 2.0 0.0 21 61
+ 0.5463 1 0 ack 40 ------- 1 2.0 0.0 21 61
- 0.5463 1 0 ack 40 ------- 1 2.0 0.0 21 61
r 0.551925 1 2 tcp 1040 ------- 1 0.0 2.0 22 34
+ 0.551925 2 1 ack 40 ------- 1 2.0 0.0 22 63
- 0.551925 2 1 ack 40 ------- 1 2.0 0.0 22 63
r 0.55437 0 1 tcp 1040 ------- 1 0.0 2.0 40 62
+ 0.55437 1 2 tcp 1040 ------- 1 0.0 2.0 40 62
r 0.55646 1 0 ack 40 ------- 1 2.0 0.0 21 61
+ 0.55646 0 1 tcp 1040 ------- 1 0.0 2.0 41 64
- 0.55646 0 1 tcp 1040 ------- 1 0.0 2.0 41 64
- 0.558175 1 2 tcp 1040 ------- 1 0.0 2.0 24 37
r 0.56255 2 1 ack 40 ------- 1 2.0 0.0 22 63
+ 0.56255 1 0 ack 40 ------- 1 2.0 0.0 22 63
- 0.56255 1 0 ack 40 ------- 1 2.0 0.0 22 63
r 0.568175 1 2 tcp 1040 ------- 1 0.0 2.0 23 36
+ 0.568175 2 1 ack 40 ------- 1 2.0 0.0 23 65
- 0.568175 2 1 ack 40 ------- 1 2.0 0.0 23 65
r 0.57062 0 1 tcp 1040 ------- 1 0.0 2.0 41 64
+ 0.57062 1 2 tcp 1040 ------- 1 0.0 2.0 41 64
r 0.57271 1 0 ack 40 ------- 1 2.0 0.0 22 63
+ 0.57271 0 1 tcp 1040 ------- 1 0.0 2.0 42 66
- 0.57271 0 1 tcp 1040 ------- 1 0.0 2.0 42 66
- 0.574425 1 2 tcp 1040 ------- 1 0.0 2.0 26 40
r 0.5788 2 1 ack 40 ------- 1 2.0 0.0 23 65
+ 0.5788 1 0 ack 40 ------- 1 2.0 0.0 23 65
- 0.5788 1 0 ack 40 ------- 1 2.0 0.0 23 65
r 0.584425 1 2 tcp 1040 ------- 1 0.0 2.0 24 37
+ 0.584425 2 1 ack 40 ------- 1 2.0 0.0 24 67
- 0.584425 2 1 ack 40 ------- 1 2.0 0.0 24 67
r 0.58687 0 1 tcp 1040 ------- 1 0.0 2.0 42 66
+ 0.58687 1 2 tcp 1040 ------- 1 0.0 2.0 42 66
r 0.58896 1 0 ack 40 ------- 1 2.0 0.0 23 65
+ 0.58896 0 1 tcp 1040 ------- 1 0.0 2.0 43 68
- 0.58896 0 1 tcp 1040 ------- 1 0.0 2.0 43 68
- 0.590675 1 2 tcp 1040 ------- 1 0.0 2.0 28 43
r 0.59505 2 1 ack 40 ------- 1 2.0 0.0 24 67
+ 0.59505 1 0 ack 40 ------- 1 2.0 0.0 24 67
- 0.59505 1 0 ack 40 ------- 1 2.0 0.0 24 67
r 0.600675 1 2 tcp 1040 ------- 1 0.0 2.0 26 40
+ 0.600675 2 1 ack 40 ------- 1 2.0 0.0 24 69
- 0.600675 2 1 ack 40 ------- 1 2.0 0.0 24 69
r 0.60312 0 1 tcp 1040 ------- 1 0.0 2.0 43 68
+ 0.60312 1 2 tcp 1040 ------- 1 0.0 2.0 43 68
r 0.60521 1 0 ack 40 ------- 1 2.0 0.0 24 67
+ 0.60521 0 1 tcp 1040 ------- 1 0.0 2.0 44 70
- 0.60521 0 1 tcp 1040 ------- 1 0.0 2.0 44 70
- 0.606925 1 2 tcp 1040 ------- 1 0.0 2.0 30 46
r 0.6113 2 1 ack 40 ------- 1 2.0 0.0 24 69
+ 0.6113 1 0 ack 40 ------- 1 2.0 0.0 24 69
- 0.6113 1 0 ack 40 ------- 1 2.0 0.0 24 69
r 0.616925 1 2 tcp 1040 ------- 1 0.0 2.0 28 43
+ 0.616925 2 1 ack 40 ------- 1 2.0 0.0 24 71
- 0.616925 2 1 ack 40 ------- 1 2.0 0.0 24 71
r 0.61937 0 1 tcp 1040 ------- 1 0.0 2.0 44 70
+ 0.61937 1 2 tcp 1040 ------- 1 0.0 2.0 44 70
r 0.62146 1 0 ack 40 ------- 1 2.0 0.0 24 69
- 0.623175 1 2 tcp 1040 ------- 1 0.0 2.0 32 49
r 0.62755 2 1 ack 40 ------- 1 2.0 0.0 24 71
+ 0.62755 1 0 ack 40 ------- 1 2.0 0.0 24 71
- 0.62755 1 0 ack 40 ------- 1 2.0 0.0 24 71
r 0.633175 1 2 tcp 1040 ------- 1 0.0 2.0 30 46
+ 0.633175 2 1 ack 40 ------- 1 2.0 0.0 24 72
- 0.633175 2 1 ack 40 ------- 1 2.0 0.0 24 72
r 0.63771 1 0 ack 40 ------- 1 2.0 0.0 24 71
- 0.639425 1 2 tcp 1040 ------- 1 0.0 2.0 34 52
r 0.6438 2 1 ack 40 ------- 1 2.0 0.0 24 72
+ 0.6438 1 0 ack 40 ------- 1 2.0 0.0 24 72
- 0.6438 1 0 ack 40 ------- 1 2.0 0.0 24 72
r 0.649425 1 2 tcp 1040 ------- 1 0.0 2.0 32 49
+ 0.649425 2 1 ack 40 ------- 1 2.0 0.0 24 73
- 0.649425 2 1 ack 40 ------- 1 2.0 0.0 24 73
r 0.65396 1 0 ack 40 ------- 1 2.0 0.0 24 72
+ 0.65396 0 1 tcp 1040 ---A--- 1 0.0 2.0 25 74
- 0.65396 0 1 tcp 1040 ---A--- 1 0.0 2.0 25 74
- 0.655675 1 2 tcp 1040 ------- 1 0.0 2.0 36 55
r 0.66005 2 1 ack 40 ------- 1 2.0 0.0 24 73
+ 0.66005 1 0 ack 40 ------- 1 2.0 0.0 24 73
- 0.66005 1 0 ack 40 ------- 1 2.0 0.0 24 73
r 0.665675 1 2 tcp 1040 ------- 1 0.0 2.0 34 52
+ 0.665675 2 1 ack 40 ------- 1 2.0 0.0 24 75
- 0.665675 2 1 ack 40 ------- 1 2.0 0.0 24 75
r 0.66812 0 1 tcp 1040 ---A--- 1 0.0 2.0 25 74
+ 0.66812 1 2 tcp 1040 ---A--- 1 0.0 2.0 25 74
r 0.67021 1 0 ack 40 ------- 1 2.0 0.0 24 73
- 0.671925 1 2 tcp 1040 ------- 1 0.0 2.0 38 58
r 0.6763 2 1 ack 40 ------- 1 2.0 0.0 24 75
+ 0.6763 1 0 ack 40 ------- 1 2.0 0.0 24 75
- 0.6763 1 0 ack 40 ------- 1 2.0 0.0 24 75
r 0.681925 1 2 tcp 1040 ------- 1 0.0 2.0 36 55
+ 0.681925 2 1 ack 40 ------- 1 2.0 0.0 24 76
- 0.681925 2 1 ack 40 ------- 1 2.0 0.0 24 76
r 0.68646 1 0 ack 40 ------- 1 2.0 0.0 24 75
- 0.688175 1 2 tcp 1040 ------- 1 0.0 2.0 40 62
r 0.69255 2 1 ack 40 ------- 1 2.0 0.0 24 76
+ 0.69255 1 0 ack 40 ------- 1 2.0 0.0 24 76
- 0.69255 1 0 ack 40 ------- 1 2.0 0.0 24 76
r 0.698175 1 2 tcp 1040 ------- 1 0.0 2.0 38 58
+ 0.698175 2 1 ack 40 ------- 1 2.0 0.0 24 77
- 0.698175 2 1 ack 40 ------- 1 2.0 0.0 24 77
r 0.70271 1 0 ack 40 ------- 1 2.0 0.0 24 76
- 0.704425 1 2 tcp 1040 ------- 1 0.0 2.0 41 64
r 0.7088 2 1 ack 40 ------- 1 2.0 0.0 24 77
+ 0.7088 1 0 ack 40 ------- 1 2.0 0.0 24 77
- 0.7088 1 0 ack 40 ------- 1 2.0 0.0 24 77
r 0.714425 1 2 tcp 1040 ------- 1 0.0 2.0 40 62
+ 0.714425 2 1 ack 40 ------- 1 2.0 0.0 24 78
- 0.714425 2 1 ack 40 ------- 1 2.0 0.0 24 78
r 0.71896 1 0 ack 40 ------- 1 2.0 0.0 24 77
- 0.720675 1 2 tcp 1040 ------- 1 0.0 2.0 42 66
r 0.72505 2 1 ack 40 ------- 1 2.0 0.0 24 78
+ 0.72505 1 0 ack 40 ------- 1 2.0 0.0 24 78
- 0.72505 1 0 ack 40 ------- 1 2.0 0.0 24 78
r 0.730675 1 2 tcp 1040 ------- 1 0.0 2.0 41 64
+ 0.730675 2 1 ack 40 ------- 1 2.0 0.0 24 79
- 0.730675 2 1 ack 40 ------- 1 2.0 0.0 24 79
r 0.73521 1 0 ack 40 ------- 1 2.0 0.0 24 78
- 0.736925 1 2 tcp 1040 ------- 1 0.0 2.0 43 68
r 0.7413 2 1 ack 40 ------- 1 2.0 0.0 24 79
+ 0.7413 1 0 ack 40 ------- 1 2.0 0.0 24 79
- 0.7413 1 0 ack 40 ------- 1 2.0 0.0 24 79
r 0.746925 1 2 tcp 1040 ------- 1 0.0 2.0 42 66
+ 0.746925 2 1 ack 40 ------- 1 2.0 0.0 24 80
- 0.746925 2 1 ack 40 ------- 1 2.0 0.0 24 80
r 0.75146 1 0 ack 40 ------- 1 2.0 0.0 24 79
- 0.753175 1 2 tcp 1040 ------- 1 0.0 2.0 44 70
r 0.75755 2 1 ack 40 ------- 1 2.0 0.0 24 80
+ 0.75755 1 0 ack 40 ------- 1 2.0 0.0 24 80
- 0.75755 1 0 ack 40 ------- 1 2.0 0.0 24 80
r 0.763175 1 2 tcp 1040 ------- 1 0.0 2.0 43 68
+ 0.763175 2 1 ack 40 ------- 1 2.0 0.0 24 81
- 0.763175 2 1 ack 40 ------- 1 2.0 0.0 24 81
r 0.76771 1 0 ack 40 ------- 1 2.0 0.0 24 80
- 0.769425 1 2 tcp 1040 ---A--- 1 0.0 2.0 25 74
r 0.7738 2 1 ack 40 ------- 1 2.0 0.0 24 81
+ 0.7738 1 0 ack 40 ------- 1 2.0 0.0 24 81
- 0.7738 1 0 ack 40 ------- 1 2.0 0.0 24 81
r 0.779425 1 2 tcp 1040 ------- 1 0.0 2.0 44 70
+ 0.779425 2 1 ack 40 ------- 1 2.0 0.0 24 82
- 0.779425 2 1 ack 40 ------- 1 2.0 0.0 24 82
r 0.78396 1 0 ack 40 ------- 1 2.0 0.0 24 81
r 0.79005 2 1 ack 40 ------- 1 2.0 0.0 24 82
+ 0.79005 1 0 ack 40 ------- 1 2.0 0.0 24 82
- 0.79005 1 0 ack 40 ------- 1 2.0 0.0 24 82
r 0.795675 1 2 tcp 1040 ---A--- 1 0.0 2.0 25 74
+ 0.795675 2 1 ack 40 ------- 1 2.0 0.0 26 83
- 0.795675 2 1 ack 40 ------- 1 2.0 0.0 26 83
r 0.80021 1 0 ack 40 ------- 1 2.0 0.0 24 82
r 0.8063 2 1 ack 40 ------- 1 2.0 0.0 26 83
+ 0.8063 1 0 ack 40 ------- 1 2.0 0.0 26 83
- 0.8063 1 0 ack 40 ------- 1 2.0 0.0 26 83
r 0.81646 1 0 ack 40 ------- 1 2.0 0.0 26 83
+ 0.81646 0 1 tcp 1040 ------- 1 0.0 2.0 27 84
- 0.81646 0 1 tcp 1040 ------- 1 0.0 2.0 27 84
+ 0.81646 0 1 tcp 1040 ------- 1 0.0 2.0 28 85
- 0.82062 0 1 tcp 1040 ------- 1 0.0 2.0 28 85
r 0.83062 0 1 tcp 1040 ------- 1 0.0 2.0 27 84
+ 0.83062 1 2 tcp 1040 ------- 1 0.0 2.0 27 84
- 0.83062 1 2 tcp 1040 ------- 1 0.0 2.0 27 84
r 0.83478 0 1 tcp 1040 ------- 1 0.0 2.0 28 85
+ 0.83478 1 2 tcp 1040 ------- 1 0.0 2.0 28 85
- 0.84687 1 2 tcp 1040 ------- 1 0.0 2.0 28 85
r 0.85687 1 2 tcp 1040 ------- 1 0.0 2.0 27 84
+ 0.85687 2 1 ack 40 ------- 1 2.0 0.0 28 86
- 0.85687 2 1 ack 40 ------- 1 2.0 0.0 28 86
r 0.867495 2 1 ack 40 ------- 1 2.0 0.0 28 86
+ 0.867495 1 0 ack 40 ------- 1 2.0 0.0 28 86
- 0.867495 1 0 ack 40 ------- 1 2.0 0.0 28 86
r 0.87312 1 2 tcp 1040 ------- 1 0.0 2.0 28 85
+ 0.87312 2 1 ack 40 ------- 1 2.0 0.0 28 87
- 0.87312 2 1 ack 40 ------- 1 2.0 0.0 28 87
r 0.877655 1 0 ack 40 ------- 1 2.0 0.0 28 86
+ 0.877655 0 1 tcp 1040 ------- 1 0.0 2.0 29 88
- 0.877655 0 1 tcp 1040 ------- 1 0.0 2.0 29 88
+ 0.877655 0 1 tcp 1040 ------- 1 0.0 2.0 30 89
+ 0.877655 0 1 tcp 1040 ------- 1 0.0 2.0 31 90
- 0.881815 0 1 tcp 1040 ------- 1 0.0 2.0 30 89
r 0.883745 2 1 ack 40 ------- 1 2.0 0.0 28 87
+ 0.883745 1 0 ack 40 ------- 1 2.0 0.0 28 87
- 0.883745 1 0 ack 40 ------- 1 2.0 0.0 28 87
- 0.885975 0 1 tcp 1040 ------- 1 0.0 2.0 31 90
r 0.891815 0 1 tcp 1040 ------- 1 0.0 2.0 29 88
+ 0.891815 1 2 tcp 1040 ------- 1 0.0 2.0 29 88
- 0.891815 1 2 tcp 1040 ------- 1 0.0 2.0 29 88
r 0.893905 1 0 ack 40 ------- 1 2.0 0.0 28 87
+ 0.893905 0 1 tcp 1040 ------- 1 0.0 2.0 32 91
- 0.893905 0 1 tcp 1040 ------- 1 0.0 2.0 32 91
r 0.895975 0 1 tcp 1040 ------- 1 0.0 2.0 30 89
+ 0.895975 1 2 tcp 1040 ------- 1 0.0 2.0 30 89
r 0.900135 0 1 tcp 1040 ------- 1 0.0 2.0 31 90
+ 0.900135 1 2 tcp 1040 ------- 1 0.0 2.0 31 90
- 0.908065 1 2 tcp 1040 ------- 1 0.0 2.0 30 89
r 0.908065 0 1 tcp 1040 ------- 1 0.0 2.0 32 91
+ 0.908065 1 2 tcp 1040 ------- 1 0.0 2.0 32 91
r 0.918065 1 2 tcp 1040 ------- 1 0.0 2.0 29 88
+ 0.918065 2 1 ack 40 ------- 1 2.0 0.0 30 92
- 0.918065 2 1 ack 40 ------- 1 2.0 0.0 30 92
- 0.924315 1 2 tcp 1040 ------- 1 0.0 2.0 31 90
r 0.92869 2 1 ack 40 ------- 1 2.0 0.0 30 92
+ 0.92869 1 0 ack 40 ------- 1 2.0 0.0 30 92
- 0.92869 1 0 ack 40 ------- 1 2.0 0.0 30 92
r 0.934315 1 2 tcp 1040 ------- 1 0.0 2.0 30 89
+ 0.934315 2 1 ack 40 ------- 1 2.0 0.0 30 93
- 0.934315 2 1 ack 40 ------- 1 2.0 0.0 30 93
r 0.93885 1 0 ack 40 ------- 1 2.0 0.0 30 92
+ 0.93885 0 1 tcp 1040 ------- 1 0.0 2.0 33 94
- 0.93885 0 1 tcp 1040 ------- 1 0.0 2.0 33 94
+ 0.93885 0 1 tcp 1040 ------- 1 0.0 2.0 34 95
- 0.940565 1 2 tcp 1040 ------- 1 0.0 2.0 32 91
- 0.94301 0 1 tcp 1040 ------- 1 0.0 2.0 34 95
r 0.94494 2 1 ack 40 ------- 1 2.0 0.0 30 93
+ 0.94494 1 0 ack 40 ------- 1 2.0 0.0 30 93
- 0.94494 1 0 ack 40 ------- 1 2.0 0.0 30 93
r 0.950565 1 2 tcp 1040 ------- 1 0.0 2.0 31 90
+ 0.950565 2 1 ack 40 ------- 1 2.0 0.0 32 96
- 0.950565 2 1 ack 40 ------- 1 2.0 0.0 32 96
r 0.95301 0 1 tcp 1040 ------- 1 0.0 2.0 33 94
+ 0.95301 1 2 tcp 1040 ------- 1 0.0 2.0 33 94
r 0.9551 1 0 ack 40 ------- 1 2.0 0.0 30 93
+ 0.9551 0 1 tcp 1040 ------- 1 0.0 2.0 35 97
- 0.9551 0 1 tcp 1040 ------- 1 0.0 2.0 35 97
- 0.956815 1 2 tcp 1040 ------- 1 0.0 2.0 33 94
r 0.95717 0 1 tcp 1040 ------- 1 0.0 2.0 34 95
+ 0.95717 1 2 tcp 1040 ------- 1 0.0 2.0 34 95
r 0.96119 2 1 ack 40 ------- 1 2.0 0.0 32 96
+ 0.96119 1 0 ack 40 ------- 1 2.0 0.0 32 96
- 0.96119 1 0 ack 40 ------- 1 2.0 0.0 32 96
r 0.966815 1 2 tcp 1040 ------- 1 0.0 2.0 32 91
+ 0.966815 2 1 ack 40 ------- 1 2.0 0.0 32 98
- 0.966815 2 1 ack 40 ------- 1 2.0 0.0 32 98
r 0.96926 0 1 tcp 1040 ------- 1 0.0 2.0 35 97
+ 0.96926 1 2 tcp 1040 ------- 1 0.0 2.0 35 97
r 0.97135 1 0 ack 40 ------- 1 2.0 0.0 32 96
+ 0.97135 0 1 tcp 1040 ------- 1 0.0 2.0 36 99
- 0.97135 0 1 tcp 1040 ------- 1 0.0 2.0 36 99
+ 0.97135 0 1 tcp 1040 ------- 1 0.0 2.0 37 100
- 0.973065 1 2 tcp 1040 ------- 1 0.0 2.0 34 95
- 0.97551 0 1 tcp 1040 ------- 1 0.0 2.0 37 100
r 0.97744 2 1 ack 40 ------- 1 2.0 0.0 32 98
+ 0.97744 1 0 ack 40 ------- 1 2.0 0.0 32 98
- 0.97744 1 0 ack 40 ------- 1 2.0 0.0 32 98
r 0.983065 1 2 tcp 1040 ------- 1 0.0 2.0 33 94
+ 0.983065 2 1 ack 40 ------- 1 2.0 0.0 34 101
- 0.983065 2 1 ack 40 ------- 1 2.0 0.0 34 101
r 0.98551 0 1 tcp 1040 ------- 1 0.0 2.0 36 99
+ 0.98551 1 2 tcp 1040 ------- 1 0.0 2.0 36 99
r 0.9876 1 0 ack 40 ------- 1 2.0 0.0 32 98
+ 0.9876 0 1 tcp 1040 ------- 1 0.0 2.0 38 102
- 0.9876 0 1 tcp 1040 ------- 1 0.0 2.0 38 102
- 0.989315 1 2 tcp 1040 ------- 1 0.0 2.0 35 97
r 0.98967 0 1 tcp 1040 ------- 1 0.0 2.0 37 100
+ 0.98967 1 2 tcp 1040 ------- 1 0.0 2.0 37 100
r 0.99369 2 1 ack 40 ------- 1 2.0 0.0 34 101
+ 0.99369 1 0 ack 40 ------- 1 2.0 0.0 34 101
- 0.99369 1 0 ack 40 ------- 1 2.0 0.0 34 101
r 0.999315 1 2 tcp 1040 ------- 1 0.0 2.0 34 95
+ 0.999315 2 1 ack 40 ------- 1 2.0 0.0 34 103
- 0.999315 2 1 ack 40 ------- 1 2.0 0.0 34 103
r 1.00176 0 1 tcp 1040 ------- 1 0.0 2.0 38 102
+ 1.00176 1 2 tcp 1040 ------- 1 0.0 2.0 38 102
r 1.00385 1 0 ack 40 ------- 1 2.0 0.0 34 101
+ 1.00385 0 1 tcp 1040 ------- 1 0.0 2.0 39 104
- 1.00385 0 1 tcp 1040 ------- 1 0.0 2.0 39 104
+ 1.00385 0 1 tcp 1040 ------- 1 0.0 2.0 40 105
- 1.005565 1 2 tcp 1040 ------- 1 0.0 2.0 36 99
- 1.00801 0 1 tcp 1040 ------- 1 0.0 2.0 40 105
r 1.00994 2 1 ack 40 ------- 1 2.0 0.0 34 103
+ 1.00994 1 0 ack 40 ------- 1 2.0 0.0 34 103
- 1.00994 1 0 ack 40 ------- 1 2.0 0.0 34 103
r 1.015565 1 2 tcp 1040 ------- 1 0.0 2.0 35 97
+ 1.015565 2 1 ack 40 ------- 1 2.0 0.0 36 106
- 1.015565 2 1 ack 40 ------- 1 2.0 0.0 36 106
r 1.01801 0 1 tcp 1040 ------- 1 0.0 2.0 39 104
+ 1.01801 1 2 tcp 1040 ------- 1 0.0 2.0 39 104
r 1.0201 1 0 ack 40 ------- 1 2.0 0.0 34 103
+ 1.0201 0 1 tcp 1040 ------- 1 0.0 2.0 41 107
- 1.0201 0 1 tcp 1040 ------- 1 0.0 2.0 41 107
- 1.021815 1 2 tcp 1040 ------- 1 0.0 2.0 37 100
r 1.02217 0 1 tcp 1040 ------- 1 0.0 2.0 40 105
+ 1.02217 1 2 tcp 1040 ------- 1 0.0 2.0 40 105
r 1.02619 2 1 ack 40 ------- 1 2.0 0.0 36 106
+ 1.02619 1 0 ack 40 ------- 1 2.0 0.0 36 106
- 1.02619 1 0 ack 40 ------- 1 2.0 0.0 36 106
r 1.031815 1 2 tcp 1040 ------- 1 0.0 2.0 36 99
+ 1.031815 2 1 ack 40 ------- 1 2.0 0.0 36 108
- 1.031815 2 1 ack 40 ------- 1 2.0 0.0 36 108
r 1.03426 0 1 tcp 1040 ------- 1 0.0 2.0 41 107
+ 1.03426 1 2 tcp 1040 ------- 1 0.0 2.0 41 107
r 1.03635 1 0 ack 40 ------- 1 2.0 0.0 36 106
+ 1.03635 0 1 tcp 1040 ------- 1 0.0 2.0 42 109
- 1.03635 0 1 tcp 1040 ------- 1 0.0 2.0 42 109
+ 1.03635 0 1 tcp 1040 ------- 1 0.0 2.0 43 110
- 1.038065 1 2 tcp 1040 ------- 1 0.0 2.0 38 102
- 1.04051 0 1 tcp 1040 ------- 1 0.0 2.0 43 110
r 1.04244 2 1 ack 40 ------- 1 2.0 0.0 36 108
+ 1.04244 1 0 ack 40 ------- 1 2.0 0.0 36 108
- 1.04244 1 0 ack 40 ------- 1 2.0 0.0 36 108
r 1.048065 1 2 tcp 1040 ------- 1 0.0 2.0 37 100
+ 1.048065 2 1 ack 40 ------- 1 2.0 0.0 38 111
- 1.048065 2 1 ack 40 ------- 1 2.0 0.0 38 111
r 1.05051 0 1 tcp 1040 ------- 1 0.0 2.0 42 109
+ 1.05051 1 2 tcp 1040 ------- 1 0.0 2.0 42 109
r 1.0526 1 0 ack 40 ------- 1 2.0 0.0 36 108
+ 1.0526 0 1 tcp 1040 ------- 1 0.0 2.0 44 112
- 1.0526 0 1 tcp 1040 ------- 1 0.0 2.0 44 112
- 1.054315 1 2 tcp 1040 ------- 1 0.0 2.0 39 104