+ 0.2 0 1 cbr 500 ------- 0 0.0 2.0 0 0
- 0.2 0 1 cbr 500 ------- 0 0.0 2.0 0 0
+ 0.202 0 1 cbr 500 ------- 0 0.0 2.0 1 1
- 0.204 0 1 cbr 500 ------- 0 0.0 2.0 1 1
+ 0.204 0 1 cbr 500 ------- 0 0.0 2.0 2 2
+ 0.206 0 1 cbr 500 ------- 0 0.0 2.0 3 3
- 0.208 0 1 cbr 500 ------- 0 0.0 2.0 2 2
+ 0.208 0 1 cbr 500 ------- 0 0.0 2.0 4 4
+ 0.21 0 1 cbr 500 ------- 0 0.0 2.0 5 5
- 0.212 0 1 cbr 500 ------- 0 0.0 2.0 3 3
+ 0.212 0 1 cbr 500 ------- 0 0.0 2.0 6 6
r 0.214 0 1 cbr 500 ------- 0 0.0 2.0 0 0
+ 0.214 1 2 cbr 500 ------- 0 0.0 2.0 0 0
- 0.214 1 2 cbr 500 ------- 0 0.0 2.0 0 0
+ 0.214 0 1 cbr 500 ------- 0 0.0 2.0 7 7
- 0.216 0 1 cbr 500 ------- 0 0.0 2.0 4 4
+ 0.216 0 1 cbr 500 ------- 0 0.0 2.0 8 8
r 0.218 0 1 cbr 500 ------- 0 0.0 2.0 1 1
+ 0.218 1 2 cbr 500 ------- 0 0.0 2.0 1 1
+ 0.218 0 1 cbr 500 ------- 0 0.0 2.0 9 9
- 0.22 0 1 cbr 500 ------- 0 0.0 2.0 5 5
+ 0.22 0 1 cbr 500 ------- 0 0.0 2.0 10 10
- 0.221813 1 2 cbr 500 ------- 0 0.0 2.0 1 1
r 0.222 0 1 cbr 500 ------- 0 0.0 2.0 2 2
+ 0.222 1 2 cbr 500 ------- 0 0.0 2.0 2 2
+ 0.222 0 1 cbr 500 ------- 0 0.0 2.0 11 11
- 0.224 0 1 cbr 500 ------- 0 0.0 2.0 6 6
+ 0.224 0 1 cbr 500 ------- 0 0.0 2.0 12 12
r 0.226 0 1 cbr 500 ------- 0 0.0 2.0 3 3
+ 0.226 1 2 cbr 500 ------- 0 0.0 2.0 3 3
+ 0.226 0 1 cbr 500 ------- 0 0.0 2.0 13 13
- 0.228 0 1 cbr 500 ------- 0 0.0 2.0 7 7
+ 0.228 0 1 cbr 500 ------- 0 0.0 2.0 14 14
- 0.229625 1 2 cbr 500 ------- 0 0.0 2.0 2 2
r 0.23 0 1 cbr 500 ------- 0 0.0 2.0 4 4
+ 0.23 1 2 cbr 500 ------- 0 0.0 2.0 4 4
+ 0.23 0 1 cbr 500 ------- 0 0.0 2.0 15 15
r 0.231813 1 2 cbr 500 ------- 0 0.0 2.0 0 0
- 0.232 0 1 cbr 500 ------- 0 0.0 2.0 8 8
+ 0.232 0 1 cbr 500 ------- 0 0.0 2.0 16 16
r 0.234 0 1 cbr 500 ------- 0 0.0 2.0 5 5
+ 0.234 1 2 cbr 500 ------- 0 0.0 2.0 5 5
+ 0.234 0 1 cbr 500 ------- 0 0.0 2.0 17 17
- 0.236 0 1 cbr 500 ------- 0 0.0 2.0 9 9
+ 0.236 0 1 cbr 500 ------- 0 0.0 2.0 18 18
- 0.237438 1 2 cbr 500 ------- 0 0.0 2.0 3 3
r 0.238 0 1 cbr 500 ------- 0 0.0 2.0 6 6
+ 0.238 1 2 cbr 500 ------- 0 0.0 2.0 6 6
+ 0.238 0 1 cbr 500 ------- 0 0.0 2.0 19 19
r 0.239625 1 2 cbr 500 ------- 0 0.0 2.0 1 1
- 0.24 0 1 cbr 500 ------- 0 0.0 2.0 10 10
+ 0.24 0 1 cbr 500 ------- 0 0.0 2.0 20 20
r 0.242 0 1 cbr 500 ------- 0 0.0 2.0 7 7
+ 0.242 1 2 cbr 500 ------- 0 0.0 2.0 7 7
+ 0.242 0 1 cbr 500 ------- 0 0.0 2.0 21 21
- 0.244 0 1 cbr 500 ------- 0 0.0 2.0 11 11
+ 0.244 0 1 cbr 500 ------- 0 0.0 2.0 22 22
- 0.24525 1 2 cbr 500 ------- 0 0.0 2.0 4 4
r 0.246 0 1 cbr 500 ------- 0 0.0 2.0 8 8
+ 0.246 1 2 cbr 500 ------- 0 0.0 2.0 8 8
+ 0.246 0 1 cbr 500 ------- 0 0.0 2.0 23 23
r 0.247438 1 2 cbr 500 ------- 0 0.0 2.0 2 2
- 0.248 0 1 cbr 500 ------- 0 0.0 2.0 12 12
+ 0.248 0 1 cbr 500 ------- 0 0.0 2.0 24 24
r 0.25 0 1 cbr 500 ------- 0 0.0 2.0 9 9
+ 0.25 1 2 cbr 500 ------- 0 0.0 2.0 9 9
d 0.25 1 2 cbr 500 ------- 0 0.0 2.0 9 9
+ 0.25 0 1 cbr 500 ------- 0 0.0 2.0 25 25
- 0.252 0 1 cbr 500 ------- 0 0.0 2.0 13 13
+ 0.252 0 1 cbr 500 ------- 0 0.0 2.0 26 26
- 0.253063 1 2 cbr 500 ------- 0 0.0 2.0 5 5
r 0.254 0 1 cbr 500 ------- 0 0.0 2.0 10 10
+ 0.254 1 2 cbr 500 ------- 0 0.0 2.0 10 10
+ 0.254 0 1 cbr 500 ------- 0 0.0 2.0 27 27
r 0.25525 1 2 cbr 500 ------- 0 0.0 2.0 3 3
- 0.256 0 1 cbr 500 ------- 0 0.0 2.0 14 14
+ 0.256 0 1 cbr 500 ------- 0 0.0 2.0 28 28
r 0.258 0 1 cbr 500 ------- 0 0.0 2.0 11 11
+ 0.258 1 2 cbr 500 ------- 0 0.0 2.0 11 11
d 0.258 1 2 cbr 500 ------- 0 0.0 2.0 11 11
+ 0.258 0 1 cbr 500 ------- 0 0.0 2.0 29 29
- 0.26 0 1 cbr 500 ------- 0 0.0 2.0 15 15
+ 0.26 0 1 cbr 500 ------- 0 0.0 2.0 30 30
- 0.260875 1 2 cbr 500 ------- 0 0.0 2.0 6 6
r 0.262 0 1 cbr 500 ------- 0 0.0 2.0 12 12
+ 0.262 1 2 cbr 500 ------- 0 0.0 2.0 12 12
+ 0.262 0 1 cbr 500 ------- 0 0.0 2.0 31 31
r 0.263063 1 2 cbr 500 ------- 0 0.0 2.0 4 4
- 0.264 0 1 cbr 500 ------- 0 0.0 2.0 16 16
+ 0.264 0 1 cbr 500 ------- 0 0.0 2.0 32 32
r 0.266 0 1 cbr 500 ------- 0 0.0 2.0 13 13
+ 0.266 1 2 cbr 500 ------- 0 0.0 2.0 13 13
d 0.266 1 2 cbr 500 ------- 0 0.0 2.0 13 13
+ 0.266 0 1 cbr 500 ------- 0 0.0 2.0 33 33
- 0.268 0 1 cbr 500 ------- 0 0.0 2.0 17 17
+ 0.268 0 1 cbr 500 ------- 0 0.0 2.0 34 34
- 0.268688 1 2 cbr 500 ------- 0 0.0 2.0 7 7
r 0.27 0 1 cbr 500 ------- 0 0.0 2.0 14 14
+ 0.27 1 2 cbr 500 ------- 0 0.0 2.0 14 14
+ 0.27 0 1 cbr 500 ------- 0 0.0 2.0 35 35
r 0.270875 1 2 cbr 500 ------- 0 0.0 2.0 5 5
- 0.272 0 1 cbr 500 ------- 0 0.0 2.0 18 18
+ 0.272 0 1 cbr 500 ------- 0 0.0 2.0 36 36
r 0.274 0 1 cbr 500 ------- 0 0.0 2.0 15 15
+ 0.274 1 2 cbr 500 ------- 0 0.0 2.0 15 15
d 0.274 1 2 cbr 500 ------- 0 0.0 2.0 15 15
+ 0.274 0 1 cbr 500 ------- 0 0.0 2.0 37 37
- 0.276 0 1 cbr 500 ------- 0 0.0 2.0 19 19
+ 0.276 0 1 cbr 500 ------- 0 0.0 2.0 38 38
- 0.2765 1 2 cbr 500 ------- 0 0.0 2.0 8 8
r 0.278 0 1 cbr 500 ------- 0 0.0 2.0 16 16
+ 0.278 1 2 cbr 500 ------- 0 0.0 2.0 16 16
+ 0.278 0 1 cbr 500 ------- 0 0.0 2.0 39 39
r 0.278688 1 2 cbr 500 ------- 0 0.0 2.0 6 6
- 0.28 0 1 cbr 500 ------- 0 0.0 2.0 20 20
+ 0.28 0 1 cbr 500 ------- 0 0.0 2.0 40 40
r 0.282 0 1 cbr 500 ------- 0 0.0 2.0 17 17
+ 0.282 1 2 cbr 500 ------- 0 0.0 2.0 17 17
d 0.282 1 2 cbr 500 ------- 0 0.0 2.0 17 17
+ 0.282 0 1 cbr 500 ------- 0 0.0 2.0 41 41
- 0.284 0 1 cbr 500 ------- 0 0.0 2.0 21 21
+ 0.284 0 1 cbr 500 ------- 0 0.0 2.0 42 42
- 0.284313 1 2 cbr 500 ------- 0 0.0 2.0 10 10
r 0.286 0 1 cbr 500 ------- 0 0.0 2.0 18 18
+ 0.286 1 2 cbr 500 ------- 0 0.0 2.0 18 18
+ 0.286 0 1 cbr 500 ------- 0 0.0 2.0 43 43
r 0.2865 1 2 cbr 500 ------- 0 0.0 2.0 7 7
- 0.288 0 1 cbr 500 ------- 0 0.0 2.0 22 22
+ 0.288 0 1 cbr 500 ------- 0 0.0 2.0 44 44
r 0.29 0 1 cbr 500 ------- 0 0.0 2.0 19 19
+ 0.29 1 2 cbr 500 ------- 0 0.0 2.0 19 19
d 0.29 1 2 cbr 500 ------- 0 0.0 2.0 19 19
+ 0.29 0 1 cbr 500 ------- 0 0.0 2.0 45 45
- 0.292 0 1 cbr 500 ------- 0 0.0 2.0 23 23
+ 0.292 0 1 cbr 500 ------- 0 0.0 2.0 46 46
- 0.292125 1 2 cbr 500 ------- 0 0.0 2.0 12 12
r 0.294 0 1 cbr 500 ------- 0 0.0 2.0 20 20
+ 0.294 1 2 cbr 500 ------- 0 0.0 2.0 20 20
+ 0.294 0 1 cbr 500 ------- 0 0.0 2.0 47 47
r 0.294313 1 2 cbr 500 ------- 0 0.0 2.0 8 8
- 0.296 0 1 cbr 500 ------- 0 0.0 2.0 24 24
+ 0.296 0 1 cbr 500 ------- 0 0.0 2.0 48 48
r 0.298 0 1 cbr 500 ------- 0 0.0 2.0 21 21
+ 0.298 1 2 cbr 500 ------- 0 0.0 2.0 21 21
d 0.298 1 2 cbr 500 ------- 0 0.0 2.0 21 21
+ 0.298 0 1 cbr 500 ------- 0 0.0 2.0 49 49
- 0.299938 1 2 cbr 500 ------- 0 0.0 2.0 14 14
- 0.3 0 1 cbr 500 ------- 0 0.0 2.0 25 25
+ 0.3 0 1 cbr 500 ------- 0 0.0 2.0 50 50
r 0.302 0 1 cbr 500 ------- 0 0.0 2.0 22 22
+ 0.302 1 2 cbr 500 ------- 0 0.0 2.0 22 22
+ 0.302 0 1 cbr 500 ------- 0 0.0 2.0 51 51
r 0.302125 1 2 cbr 500 ------- 0 0.0 2.0 10 10
- 0.304 0 1 cbr 500 ------- 0 0.0 2.0 26 26
+ 0.304 0 1 cbr 500 ------- 0 0.0 2.0 52 52
r 0.306 0 1 cbr 500 ------- 0 0.0 2.0 23 23
+ 0.306 1 2 cbr 500 ------- 0 0.0 2.0 23 23
d 0.306 1 2 cbr 500 ------- 0 0.0 2.0 23 23
+ 0.306 0 1 cbr 500 ------- 0 0.0 2.0 53 53
- 0.30775 1 2 cbr 500 ------- 0 0.0 2.0 16 16
- 0.308 0 1 cbr 500 ------- 0 0.0 2.0 27 27
+ 0.308 0 1 cbr 500 ------- 0 0.0 2.0 54 54
r 0.309938 1 2 cbr 500 ------- 0 0.0 2.0 12 12
r 0.31 0 1 cbr 500 ------- 0 0.0 2.0 24 24
+ 0.31 1 2 cbr 500 ------- 0 0.0 2.0 24 24
+ 0.31 0 1 cbr 500 ------- 0 0.0 2.0 55 55
- 0.312 0 1 cbr 500 ------- 0 0.0 2.0 28 28
+ 0.312 0 1 cbr 500 ------- 0 0.0 2.0 56 56
r 0.314 0 1 cbr 500 ------- 0 0.0 2.0 25 25
+ 0.314 1 2 cbr 500 ------- 0 0.0 2.0 25 25
d 0.314 1 2 cbr 500 ------- 0 0.0 2.0 25 25
+ 0.314 0 1 cbr 500 ------- 0 0.0 2.0 57 57
- 0.315563 1 2 cbr 500 ------- 0 0.0 2.0 18 18
- 0.316 0 1 cbr 500 ------- 0 0.0 2.0 29 29
+ 0.316 0 1 cbr 500 ------- 0 0.0 2.0 58 58
r 0.31775 1 2 cbr 500 ------- 0 0.0 2.0 14 14
r 0.318 0 1 cbr 500 ------- 0 0.0 2.0 26 26
+ 0.318 1 2 cbr 500 ------- 0 0.0 2.0 26 26
+ 0.318 0 1 cbr 500 ------- 0 0.0 2.0 59 59
- 0.32 0 1 cbr 500 ------- 0 0.0 2.0 30 30
+ 0.32 0 1 cbr 500 ------- 0 0.0 2.0 60 60
r 0.322 0 1 cbr 500 ------- 0 0.0 2.0 27 27
+ 0.322 1 2 cbr 500 ------- 0 0.0 2.0 27 27
d 0.322 1 2 cbr 500 ------- 0 0.0 2.0 27 27
+ 0.322 0 1 cbr 500 ------- 0 0.0 2.0 61 61
- 0.323375 1 2 cbr 500 ------- 0 0.0 2.0 20 20
- 0.324 0 1 cbr 500 ------- 0 0.0 2.0 31 31
+ 0.324 0 1 cbr 500 ------- 0 0.0 2.0 62 62
r 0.325563 1 2 cbr 500 ------- 0 0.0 2.0 16 16
r 0.326 0 1 cbr 500 ------- 0 0.0 2.0 28 28
+ 0.326 1 2 cbr 500 ------- 0 0.0 2.0 28 28
+ 0.326 0 1 cbr 500 ------- 0 0.0 2.0 63 63
- 0.328 0 1 cbr 500 ------- 0 0.0 2.0 32 32
+ 0.328 0 1 cbr 500 ------- 0 0.0 2.0 64 64
r 0.33 0 1 cbr 500 ------- 0 0.0 2.0 29 29
+ 0.33 1 2 cbr 500 ------- 0 0.0 2.0 29 29
d 0.33 1 2 cbr 500 ------- 0 0.0 2.0 29 29
+ 0.33 0 1 cbr 500 ------- 0 0.0 2.0 65 65
- 0.331188 1 2 cbr 500 ------- 0 0.0 2.0 22 22
- 0.332 0 1 cbr 500 ------- 0 0.0 2.0 33 33
+ 0.332 0 1 cbr 500 ------- 0 0.0 2.0 66 66
r 0.333375 1 2 cbr 500 ------- 0 0.0 2.0 18 18
r 0.334 0 1 cbr 500 ------- 0 0.0 2.0 30 30
+ 0.334 1 2 cbr 500 ------- 0 0.0 2.0 30 30
+ 0.334 0 1 cbr 500 ------- 0 0.0 2.0 67 67
- 0.336 0 1 cbr 500 ------- 0 0.0 2.0 34 34
+ 0.336 0 1 cbr 500 ------- 0 0.0 2.0 68 68
r 0.338 0 1 cbr 500 ------- 0 0.0 2.0 31 31
+ 0.338 1 2 cbr 500 ------- 0 0.0 2.0 31 31
d 0.338 1 2 cbr 500 ------- 0 0.0 2.0 31 31
+ 0.338 0 1 cbr 500 ------- 0 0.0 2.0 69 69
- 0.339 1 2 cbr 500 ------- 0 0.0 2.0 24 24
- 0.34 0 1 cbr 500 ------- 0 0.0 2.0 35 35
+ 0.34 0 1 cbr 500 ------- 0 0.0 2.0 70 70
r 0.341188 1 2 cbr 500 ------- 0 0.0 2.0 20 20
r 0.342 0 1 cbr 500 ------- 0 0.0 2.0 32 32
+ 0.342 1 2 cbr 500 ------- 0 0.0 2.0 32 32
+ 0.342 0 1 cbr 500 ------- 0 0.0 2.0 71 71
- 0.344 0 1 cbr 500 ------- 0 0.0 2.0 36 36
+ 0.344 0 1 cbr 500 ------- 0 0.0 2.0 72 72
r 0.346 0 1 cbr 500 ------- 0 0.0 2.0 33 33
+ 0.346 1 2 cbr 500 ------- 0 0.0 2.0 33 33
d 0.346 1 2 cbr 500 ------- 0 0.0 2.0 33 33
+ 0.346 0 1 cbr 500 ------- 0 0.0 2.0 73 73
- 0.346813 1 2 cbr 500 ------- 0 0.0 2.0 26 26
- 0.348 0 1 cbr 500 ------- 0 0.0 2.0 37 37
+ 0.348 0 1 cbr 500 ------- 0 0.0 2.0 74 74
r 0.349 1 2 cbr 500 ------- 0 0.0 2.0 22 22
r 0.35 0 1 cbr 500 ------- 0 0.0 2.0 34 34
+ 0.35 1 2 cbr 500 ------- 0 0.0 2.0 34 34
+ 0.35 0 1 cbr 500 ------- 0 0.0 2.0 75 75
- 0.352 0 1 cbr 500 ------- 0 0.0 2.0 38 38
+ 0.352 0 1 cbr 500 ------- 0 0.0 2.0 76 76
r 0.354 0 1 cbr 500 ------- 0 0.0 2.0 35 35
+ 0.354 1 2 cbr 500 ------- 0 0.0 2.0 35 35
d 0.354 1 2 cbr 500 ------- 0 0.0 2.0 35 35
+ 0.354 0 1 cbr 500 ------- 0 0.0 2.0 77 77
- 0.354625 1 2 cbr 500 ------- 0 0.0 2.0 28 28
- 0.356 0 1 cbr 500 ------- 0 0.0 2.0 39 39
+ 0.356 0 1 cbr 500 ------- 0 0.0 2.0 78 78
r 0.356813 1 2 cbr 500 ------- 0 0.0 2.0 24 24
r 0.358 0 1 cbr 500 ------- 0 0.0 2.0 36 36
+ 0.358 1 2 cbr 500 ------- 0 0.0 2.0 36 36
+ 0.358 0 1 cbr 500 ------- 0 0.0 2.0 79 79
- 0.36 0 1 cbr 500 ------- 0 0.0 2.0 40 40
+ 0.36 0 1 cbr 500 ------- 0 0.0 2.0 80 80
r 0.362 0 1 cbr 500 ------- 0 0.0 2.0 37 37
+ 0.362 1 2 cbr 500 ------- 0 0.0 2.0 37 37
d 0.362 1 2 cbr 500 ------- 0 0.0 2.0 37 37
+ 0.362 0 1 cbr 500 ------- 0 0.0 2.0 81 81
- 0.362438 1 2 cbr 500 ------- 0 0.0 2.0 30 30
- 0.364 0 1 cbr 500 ------- 0 0.0 2.0 41 41
+ 0.364 0 1 cbr 500 ------- 0 0.0 2.0 82 82
r 0.364625 1 2 cbr 500 ------- 0 0.0 2.0 26 26
r 0.366 0 1 cbr 500 ------- 0 0.0 2.0 38 38
+ 0.366 1 2 cbr 500 ------- 0 0.0 2.0 38 38
+ 0.366 0 1 cbr 500 ------- 0 0.0 2.0 83 83
- 0.368 0 1 cbr 500 ------- 0 0.0 2.0 42 42
+ 0.368 0 1 cbr 500 ------- 0 0.0 2.0 84 84
r 0.37 0 1 cbr 500 ------- 0 0.0 2.0 39 39
+ 0.37 1 2 cbr 500 ------- 0 0.0 2.0 39 39
d 0.37 1 2 cbr 500 ------- 0 0.0 2.0 39 39
+ 0.37 0 1 cbr 500 ------- 0 0.0 2.0 85 85
- 0.37025 1 2 cbr 500 ------- 0 0.0 2.0 32 32
- 0.372 0 1 cbr 500 ------- 0 0.0 2.0 43 43
+ 0.372 0 1 cbr 500 ------- 0 0.0 2.0 86 86
r 0.372438 1 2 cbr 500 ------- 0 0.0 2.0 28 28
r 0.374 0 1 cbr 500 ------- 0 0.0 2.0 40 40
+ 0.374 1 2 cbr 500 ------- 0 0.0 2.0 40 40
+ 0.374 0 1 cbr 500 ------- 0 0.0 2.0 87 87
- 0.376 0 1 cbr 500 ------- 0 0.0 2.0 44 44
+ 0.376 0 1 cbr 500 ------- 0 0.0 2.0 88 88
r 0.378 0 1 cbr 500 ------- 0 0.0 2.0 41 41
+ 0.378 1 2 cbr 500 ------- 0 0.0 2.0 41 41
d 0.378 1 2 cbr 500 ------- 0 0.0 2.0 41 41
+ 0.378 0 1 cbr 500 ------- 0 0.0 2.0 89 89
- 0.378063 1 2 cbr 500 ------- 0 0.0 2.0 34 34
- 0.38 0 1 cbr 500 ------- 0 0.0 2.0 45 45
+ 0.38 0 1 cbr 500 ------- 0 0.0 2.0 90 90
r 0.38025 1 2 cbr 500 ------- 0 0.0 2.0 30 30
r 0.382 0 1 cbr 500 ------- 0 0.0 2.0 42 42
+ 0.382 1 2 cbr 500 ------- 0 0.0 2.0 42 42
+ 0.382 0 1 cbr 500 ------- 0 0.0 2.0 91 91
- 0.384 0 1 cbr 500 ------- 0 0.0 2.0 46 46
+ 0.384 0 1 cbr 500 ------- 0 0.0 2.0 92 92
- 0.385875 1 2 cbr 500 ------- 0 0.0 2.0 36 36
r 0.386 0 1 cbr 500 ------- 0 0.0 2.0 43 43
+ 0.386 1 2 cbr 500 ------- 0 0.0 2.0 43 43
+ 0.386 0 1 cbr 500 ------- 0 0.0 2.0 93 93
- 0.388 0 1 cbr 500 ------- 0 0.0 2.0 47 47
+ 0.388 0 1 cbr 500 ------- 0 0.0 2.0 94 94
r 0.388063 1 2 cbr 500 ------- 0 0.0 2.0 32 32
r 0.39 0 1 cbr 500 ------- 0 0.0 2.0 44 44
+ 0.39 1 2 cbr 500 ------- 0 0.0 2.0 44 44
d 0.39 1 2 cbr 500 ------- 0 0.0 2.0 44 44
+ 0.39 0 1 cbr 500 ------- 0 0.0 2.0 95 95
- 0.392 0 1 cbr 500 ------- 0 0.0 2.0 48 48
+ 0.392 0 1 cbr 500 ------- 0 0.0 2.0 96 96
- 0.393688 1 2 cbr 500 ------- 0 0.0 2.0 38 38
r 0.394 0 1 cbr 500 ------- 0 0.0 2.0 45 45
+ 0.394 1 2 cbr 500 ------- 0 0.0 2.0 45 45
+ 0.394 0 1 cbr 500 ------- 0 0.0 2.0 97 97
r 0.395875 1 2 cbr 500 ------- 0 0.0 2.0 34 34
- 0.396 0 1 cbr 500 ------- 0 0.0 2.0 49 49
+ 0.396 0 1 cbr 500 ------- 0 0.0 2.0 98 98
r 0.398 0 1 cbr 500 ------- 0 0.0 2.0 46 46
+ 0.398 1 2 cbr 500 ------- 0 0.0 2.0 46 46
d 0.398 1 2 cbr 500 ------- 0 0.0 2.0 46 46
+ 0.398 0 1 cbr 500 ------- 0 0.0 2.0 99 99
d 0.398 0 1 cbr 500 ------- 0 0.0 2.0 99 99
- 0.4 0 1 cbr 500 ------- 0 0.0 2.0 50 50
+ 0.4 0 1 cbr 500 ------- 0 0.0 2.0 100 100
- 0.4015 1 2 cbr 500 ------- 0 0.0 2.0 40 40
r 0.402 0 1 cbr 500 ------- 0 0.0 2.0 47 47
+ 0.402 1 2 cbr 500 ------- 0 0.0 2.0 47 47
+ 0.402 0 1 cbr 500 ------- 0 0.0 2.0 101 101
d 0.402 0 1 cbr 500 ------- 0 0.0 2.0 101 101
r 0.403688 1 2 cbr 500 ------- 0 0.0 2.0 36 36
- 0.404 0 1 cbr 500 ------- 0 0.0 2.0 51 51
+ 0.404 0 1 cbr 500 ------- 0 0.0 2.0 102 102
r 0.406 0 1 cbr 500 ------- 0 0.0 2.0 48 48
+ 0.406 1 2 cbr 500 ------- 0 0.0 2.0 48 48
d 0.406 1 2 cbr 500 ------- 0 0.0 2.0 48 48
+ 0.406 0 1 cbr 500 ------- 0 0.0 2.0 103 103
d 0.406 0 1 cbr 500 ------- 0 0.0 2.0 103 103
- 0.408 0 1 cbr 500 ------- 0 0.0 2.0 52 52
+ 0.408 0 1 cbr 500 ------- 0 0.0 2.0 104 104
- 0.409313 1 2 cbr 500 ------- 0 0.0 2.0 42 42
r 0.41 0 1 cbr 500 ------- 0 0.0 2.0 49 49
+ 0.41 1 2 cbr 500 ------- 0 0.0 2.0 49 49
+ 0.41 0 1 cbr 500 ------- 0 0.0 2.0 105 105
d 0.41 0 1 cbr 500 ------- 0 0.0 2.0 105 105
r 0.4115 1 2 cbr 500 ------- 0 0.0 2.0 38 38
- 0.412 0 1 cbr 500 ------- 0 0.0 2.0 53 53
+ 0.412 0 1 cbr 500 ------- 0 0.0 2.0 106 106
r 0.414 0 1 cbr 500 ------- 0 0.0 2.0 50 50
+ 0.414 1 2 cbr 500 ------- 0 0.0 2.0 50 50
d 0.414 1 2 cbr 500 ------- 0 0.0 2.0 50 50
+ 0.414 0 1 cbr 500 ------- 0 0.0 2.0 107 107
d 0.414 0 1 cbr 500 ------- 0 0.0 2.0 107 107
- 0.416 0 1 cbr 500 ------- 0 0.0 2.0 54 54
+ 0.416 0 1 cbr 500 ------- 0 0.0 2.0 108 108
- 0.417125 1 2 cbr 500 ------- 0 0.0 2.0 43 43
r 0.418 0 1 cbr 500 ------- 0 0.0 2.0 51 51
+ 0.418 1 2 cbr 500 ------- 0 0.0 2.0 51 51
+ 0.418 0 1 cbr 500 ------- 0 0.0 2.0 109 109
d 0.418 0 1 cbr 500 ------- 0 0.0 2.0 109 109
r 0.419313 1 2 cbr 500 ------- 0 0.0 2.0 40 40
- 0.42 0 1 cbr 500 ------- 0 0.0 2.0 55 55
+ 0.42 0 1 cbr 500 ------- 0 0.0 2.0 110 110
r 0.422 0 1 cbr 500 ------- 0 0.0 2.0 52 52
+ 0.422 1 2 cbr 500 ------- 0 0.0 2.0 52 52
d 0.422 1 2 cbr 500 ------- 0 0.0 2.0 52 52
+ 0.422 0 1 cbr 500 ------- 0 0.0 2.0 111 111
d 0.422 0 1 cbr 500 ------- 0 0.0 2.0 111 111
- 0.424 0 1 cbr 500 ------- 0 0.0 2.0 56 56
+ 0.424 0 1 cbr 500 ------- 0 0.0 2.0 112 112
- 0.424938 1 2 cbr 500 ------- 0 0.0 2.0 45 45
r 0.426 0 1 cbr 500 ------- 0 0.0 2.0 53 53
+ 0.426 1 2 cbr 500 ------- 0 0.0 2.0 53 53
+ 0.426 0 1 cbr 500 ------- 0 0.0 2.0 113 113
d 0.426 0 1 cbr 500 ------- 0 0.0 2.0 113 113
r 0.427125 1 2 cbr 500 ------- 0 0.0 2.0 42 42
- 0.428 0 1 cbr 500 ------- 0 0.0 2.0 57 57
+ 0.428 0 1 cbr 500 ------- 0 0.0 2.0 114 114
r 0.43 0 1 cbr 500 ------- 0 0.0 2.0 54 54
+ 0.43 1 2 cbr 500 ------- 0 0.0 2.0 54 54
d 0.43 1 2 cbr 500 ------- 0 0.0 2.0 54 54
+ 0.43 0 1 cbr 500 ------- 0 0.0 2.0 115 115
d 0.43 0 1 cbr 500 ------- 0 0.0 2.0 115 115
- 0.432 0 1 cbr 500 ------- 0 0.0 2.0 58 58
+ 0.432 0 1 cbr 500 ------- 0 0.0 2.0 116 116
- 0.43275 1 2 cbr 500 ------- 0 0.0 2.0 47 47
r 0.434 0 1 cbr 500 ------- 0 0.0 2.0 55 55
+ 0.434 1 2 cbr 500 ------- 0 0.0 2.0 55 55
+ 0.434 0 1 cbr 500 ------- 0 0.0 2.0 117 117
d 0.434 0 1 cbr 500 ------- 0 0.0 2.0 117 117
r 0.434938 1 2 cbr 500 ------- 0 0.0 2.0 43 43
- 0.436 0 1 cbr 500 ------- 0 0.0 2.0 59 59
+ 0.436 0 1 cbr 500 ------- 0 0.0 2.0 118 118
r 0.438 0 1 cbr 500 ------- 0 0.0 2.0 56 56
+ 0.438 1 2 cbr 500 ------- 0 0.0 2.0 56 56
d 0.438 1 2 cbr 500 ------- 0 0.0 2.0 56 56
+ 0.438 0 1 cbr 500 ------- 0 0.0 2.0 119 119
d 0.438 0 1 cbr 500 ------- 0 0.0 2.0 119 119
- 0.44 0 1 cbr 500 ------- 0 0.0 2.0 60 60
+ 0.44 0 1 cbr 500 ------- 0 0.0 2.0 120 120
- 0.440563 1 2 cbr 500 ------- 0 0.0 2.0 49 49
r 0.442 0 1 cbr 500 ------- 0 0.0 2.0 57 57
+ 0.442 1 2 cbr 500 ------- 0 0.0 2.0 57 57
+ 0.442 0 1 cbr 500 ------- 0 0.0 2.0 121 121
d 0.442 0 1 cbr 500 ------- 0 0.0 2.0 121 121
r 0.44275 1 2 cbr 500 ------- 0 0.0 2.0 45 45
- 0.444 0 1 cbr 500 ------- 0 0.0 2.0 61 61
+ 0.444 0 1 cbr 500 ------- 0 0.0 2.0 122 122
r 0.446 0 1 cbr 500 ------- 0 0.0 2.0 58 58
+ 0.446 1 2 cbr 500 ------- 0 0.0 2.0 58 58
d 0.446 1 2 cbr 500 ------- 0 0.0 2.0 58 58
+ 0.446 0 1 cbr 500 ------- 0 0.0 2.0 123 123
d 0.446 0 1 cbr 500 ------- 0 0.0 2.0 123 123
- 0.448 0 1 cbr 500 ------- 0 0.0 2.0 62 62
+ 0.448 0 1 cbr 500 ------- 0 0.0 2.0 124 124
- 0.448375 1 2 cbr 500 ------- 0 0.0 2.0 51 51
r 0.45 0 1 cbr 500 ------- 0 0.0 2.0 59 59
+ 0.45 1 2 cbr 500 ------- 0 0.0 2.0 59 59
+ 0.45 0 1 cbr 500 ------- 0 0.0 2.0 125 125
d 0.45 0 1 cbr 500 ------- 0 0.0 2.0 125 125
r 0.450563 1 2 cbr 500 ------- 0 0.0 2.0 47 47
- 0.452 0 1 cbr 500 ------- 0 0.0 2.0 63 63
+ 0.452 0 1 cbr 500 ------- 0 0.0 2.0 126 126
r 0.454 0 1 cbr 500 ------- 0 0.0 2.0 60 60
+ 0.454 1 2 cbr 500 ------- 0 0.0 2.0 60 60
d 0.454 1 2 cbr 500 ------- 0 0.0 2.0 60 60
+ 0.454 0 1 cbr 500 ------- 0 0.0 2.0 127 127
d 0.454 0 1 cbr 500 ------- 0 0.0 2.0 127 127
- 0.456 0 1 cbr 500 ------- 0 0.0 2.0 64 64
+ 0.456 0 1 cbr 500 ------- 0 0.0 2.0 128 128
- 0.456188 1 2 cbr 500 ------- 0 0.0 2.0 53 53
r 0.458 0 1 cbr 500 ------- 0 0.0 2.0 61 61
+ 0.458 1 2 cbr 500 ------- 0 0.0 2.0 61 61
+ 0.458 0 1 cbr 500 ------- 0 0.0 2.0 129 129
d 0.458 0 1 cbr 500 ------- 0 0.0 2.0 129 129
r 0.458375 1 2 cbr 500 ------- 0 0.0 2.0 49 49
- 0.46 0 1 cbr 500 ------- 0 0.0 2.0 65 65
+ 0.46 0 1 cbr 500 ------- 0 0.0 2.0 130 130
r 0.462 0 1 cbr 500 ------- 0 0.0 2.0 62 62
+ 0.462 1 2 cbr 500 ------- 0 0.0 2.0 62 62
d 0.462 1 2 cbr 500 ------- 0 0.0 2.0 62 62
+ 0.462 0 1 cbr 500 ------- 0 0.0 2.0 131 131
d 0.462 0 1 cbr 500 ------- 0 0.0 2.0 131 131
- 0.464 1 2 cbr 500 ------- 0 0.0 2.0 55 55
- 0.464 0 1 cbr 500 ------- 0 0.0 2.0 66 66
+ 0.464 0 1 cbr 500 ------- 0 0.0 2.0 132 132
r 0.466 0 1 cbr 500 ------- 0 0.0 2.0 63 63
+ 0.466 1 2 cbr 500 ------- 0 0.0 2.0 63 63
+ 0.466 0 1 cbr 500 ------- 0 0.0 2.0 133 133
d 0.466 0 1 cbr 500 ------- 0 0.0 2.0 133 133
r 0.466188 1 2 cbr 500 ------- 0 0.0 2.0 51 51
- 0.468 0 1 cbr 500 ------- 0 0.0 2.0 67 67
+ 0.468 0 1 cbr 500 ------- 0 0.0 2.0 134 134
r 0.47 0 1 cbr 500 ------- 0 0.0 2.0 64 64
+ 0.47 1 2 cbr 500 ------- 0 0.0 2.0 64 64
d 0.47 1 2 cbr 500 ------- 0 0.0 2.0 64 64
+ 0.47 0 1 cbr 500 ------- 0 0.0 2.0 135 135
d 0.47 0 1 cbr 500 ------- 0 0.0 2.0 135 135
- 0.471813 1 2 cbr 500 ------- 0 0.0 2.0 57 57
- 0.472 0 1 cbr 500 ------- 0 0.0 2.0 68 68
+ 0.472 0 1 cbr 500 ------- 0 0.0 2.0 136 136
r 0.474 1 2 cbr 500 ------- 0 0.0 2.0 53 53
r 0.474 0 1 cbr 500 ------- 0 0.0 2.0 65 65
+ 0.474 1 2 cbr 500 ------- 0 0.0 2.0 65 65
+ 0.474 0 1 cbr 500 ------- 0 0.0 2.0 137 137
d 0.474 0 1 cbr 500 ------- 0 0.0 2.0 137 137
- 0.476 0 1 cbr 500 ------- 0 0.0 2.0 69 69
+ 0.476 0 1 cbr 500 ------- 0 0.0 2.0 138 138
r 0.478 0 1 cbr 500 ------- 0 0.0 2.0 66 66
+ 0.478 1 2 cbr 500 ------- 0 0.0 2.0 66 66
d 0.478 1 2 cbr 500 ------- 0 0.0 2.0 66 66
+ 0.478 0 1 cbr 500 ------- 0 0.0 2.0 139 139
d 0.478 0 1 cbr 500 ------- 0 0.0 2.0 139 139
- 0.479625 1 2 cbr 500 ------- 0 0.0 2.0 59 59
- 0.48 0 1 cbr 500 ------- 0 0.0 2.0 70 70
+ 0.48 0 1 cbr 500 ------- 0 0.0 2.0 140 140
r 0.481813 1 2 cbr 500 ------- 0 0.0 2.0 55 55
r 0.482 0 1 cbr 500 ------- 0 0.0 2.0 67 67
+ 0.482 1 2 cbr 500 ------- 0 0.0 2.0 67 67
+ 0.482 0 1 cbr 500 ------- 0 0.0 2.0 141 141
d 0.482 0 1 cbr 500 ------- 0 0.0 2.0 141 141
- 0.484 0 1 cbr 500 ------- 0 0.0 2.0 71 71
+ 0.484 0 1 cbr 500 ------- 0 0.0 2.0 142 142
r 0.486 0 1 cbr 500 ------- 0 0.0 2.0 68 68
+ 0.486 1 2 cbr 500 ------- 0 0.0 2.0 68 68
d 0.486 1 2 cbr 500 ------- 0 0.0 2.0 68 68
+ 0.486 0 1 cbr 500 ------- 0 0.0 2.0 143 143
d 0.486 0 1 cbr 500 ------- 0 0.0 2.0 143 143
- 0.487438 1 2 cbr 500 ------- 0 0.0 2.0 61 61
- 0.488 0 1 cbr 500 ------- 0 0.0 2.0 72 72
+ 0.488 0 1 cbr 500 ------- 0 0.0 2.0 144 144
r 0.489625 1 2 cbr 500 ------- 0 0.0 2.0 57 57
r 0.49 0 1 cbr 500 ------- 0 0.0 2.0 69 69
+ 0.49 1 2 cbr 500 ------- 0 0.0 2.0 69 69
+ 0.49 0 1 cbr 500 ------- 0 0.0 2.0 145 145
d 0.49 0 1 cbr 500 ------- 0 0.0 2.0 145 145
- 0.492 0 1 cbr 500 ------- 0 0.0 2.0 73 73
+ 0.492 0 1 cbr 500 ------- 0 0.0 2.0 146 146
r 0.494 0 1 cbr 500 ------- 0 0.0 2.0 70 70
+ 0.494 1 2 cbr 500 ------- 0 0.0 2.0 70 70
d 0.494 1 2 cbr 500 ------- 0 0.0 2.0 70 70
+ 0.494 0 1 cbr 500 ------- 0 0.0 2.0 147 147
d 0.494 0 1 cbr 500 ------- 0 0.0 2.0 147 147
- 0.49525 1 2 cbr 500 ------- 0 0.0 2.0 63 63
- 0.496 0 1 cbr 500 ------- 0 0.0 2.0 74 74
+ 0.496 0 1 cbr 500 ------- 0 0.0 2.0 148 148
r 0.497438 1 2 cbr 500 ------- 0 0.0 2.0 59 59
r 0.498 0 1 cbr 500 ------- 0 0.0 2.0 71 71
+ 0.498 1 2 cbr 500 ------- 0 0.0 2.0 71 71
+ 0.498 0 1 cbr 500 ------- 0 0.0 2.0 149 149
d 0.498 0 1 cbr 500 ------- 0 0.0 2.0 149 149
- 0.5 0 1 cbr 500 ------- 0 0.0 2.0 75 75
+ 0.5 0 1 cbr 500 ------- 0 0.0 2.0 150 150
r 0.502 0 1 cbr 500 ------- 0 0.0 2.0 72 72
+ 0.502 1 2 cbr 500 ------- 0 0.0 2.0 72 72
d 0.502 1 2 cbr 500 ------- 0 0.0 2.0 72 72
+ 0.502 0 1 cbr 500 ------- 0 0.0 2.0 151 151
d 0.502 0 1 cbr 500 ------- 0 0.0 2.0 151 151
- 0.503062 1 2 cbr 500 ------- 0 0.0 2.0 65 65
- 0.504 0 1 cbr 500 ------- 0 0.0 2.0 76 76
+ 0.504 0 1 cbr 500 ------- 0 0.0 2.0 152 152
r 0.50525 1 2 cbr 500 ------- 0 0.0 2.0 61 61
r 0.506 0 1 cbr 500 ------- 0 0.0 2.0 73 73
+ 0.506 1 2 cbr 500 ------- 0 0.0 2.0 73 73
+ 0.506 0 1 cbr 500 ------- 0 0.0 2.0 153 153
d 0.506 0 1 cbr 500 ------- 0 0.0 2.0 153 153
- 0.508 0 1 cbr 500 ------- 0 0.0 2.0 77 77
+ 0.508 0 1 cbr 500 ------- 0 0.0 2.0 154 154
r 0.51 0 1 cbr 500 ------- 0 0.0 2.0 74 74
+ 0.51 1 2 cbr 500 ------- 0 0.0 2.0 74 74
d 0.51 1 2 cbr 500 ------- 0 0.0 2.0 74 74
+ 0.51 0 1 cbr 500 ------- 0 0.0 2.0 155 155
d 0.51 0 1 cbr 500 ------- 0 0.0 2.0 155 155
- 0.510875 1 2 cbr 500 ------- 0 0.0 2.0 67 67
- 0.512 0 1 cbr 500 ------- 0 0.0 2.0 78 78
+ 0.512 0 1 cbr 500 ------- 0 0.0 2.0 156 156
r 0.513063 1 2 cbr 500 ------- 0 0.0 2.0 63 63
r 0.514 0 1 cbr 500 ------- 0 0.0 2.0 75 75
+ 0.514 1 2 cbr 500 ------- 0 0.0 2.0 75 75
+ 0.514 0 1 cbr 500 ------- 0 0.0 2.0 157 157
d 0.514 0 1 cbr 500 ------- 0 0.0 2.0 157 157
- 0.516 0 1 cbr 500 ------- 0 0.0 2.0 79 79
+ 0.516 0 1 cbr 500 ------- 0 0.0 2.0 158 158
r 0.518 0 1 cbr 500 ------- 0 0.0 2.0 76 76
+ 0.518 1 2 cbr 500 ------- 0 0.0 2.0 76 76
d 0.518 1 2 cbr 500 ------- 0 0.0 2.0 76 76
+ 0.518 0 1 cbr 500 ------- 0 0.0 2.0 159 159
d 0.518 0 1 cbr 500 ------- 0 0.0 2.0 159 159
- 0.518687 1 2 cbr 500 ------- 0 0.0 2.0 69 69
- 0.52 0 1 cbr 500 ------- 0 0.0 2.0 80 80
+ 0.52 0 1 cbr 500 ------- 0 0.0 2.0 160 160
r 0.520875 1 2 cbr 500 ------- 0 0.0 2.0 65 65
r 0.522 0 1 cbr 500 ------- 0 0.0 2.0 77 77
+ 0.522 1 2 cbr 500 ------- 0 0.0 2.0 77 77
+ 0.522 0 1 cbr 500 ------- 0 0.0 2.0 161 161
d 0.522 0 1 cbr 500 ------- 0 0.0 2.0 161 161
- 0.524 0 1 cbr 500 ------- 0 0.0 2.0 81 81
+ 0.524 0 1 cbr 500 ------- 0 0.0 2.0 162 162
r 0.526 0 1 cbr 500 ------- 0 0.0 2.0 78 78
+ 0.526 1 2 cbr 500 ------- 0 0.0 2.0 78 78
d 0.526 1 2 cbr 500 ------- 0 0.0 2.0 78 78
+ 0.526 0 1 cbr 500 ------- 0 0.0 2.0 163 163
d 0.526 0 1 cbr 500 ------- 0 0.0 2.0 163 163
- 0.5265 1 2 cbr 500 ------- 0 0.0 2.0 71 71
- 0.528 0 1 cbr 500 ------- 0 0.0 2.0 82 82
+ 0.528 0 1 cbr 500 ------- 0 0.0 2.0 164 164
r 0.528688 1 2 cbr 500 ------- 0 0.0 2.0 67 67
r 0.53 0 1 cbr 500 ------- 0 0.0 2.0 79 79
+ 0.53 1 2 cbr 500 ------- 0 0.0 2.0 79 79
+ 0.53 0 1 cbr 500 ------- 0 0.0 2.0 165 165
d 0.53 0 1 cbr 500 ------- 0 0.0 2.0 165 165
- 0.532 0 1 cbr 500 ------- 0 0.0 2.0 83 83
+ 0.532 0 1 cbr 500 ------- 0 0.0 2.0 166 166
r 0.534 0 1 cbr 500 ------- 0 0.0 2.0 80 80
+ 0.534 1 2 cbr 500 ------- 0 0.0 2.0 80 80
d 0.534 1 2 cbr 500 ------- 0 0.0 2.0 80 80
+ 0.534 0 1 cbr 500 ------- 0 0.0 2.0 167 167
d 0.534 0 1 cbr 500 ------- 0 0.0 2.0 167 167
- 0.534313 1 2 cbr 500 ------- 0 0.0 2.0 73 73
- 0.536 0 1 cbr 500 ------- 0 0.0 2.0 84 84
+ 0.536 0 1 cbr 500 ------- 0 0.0 2.0 168 168
r 0.5365 1 2 cbr 500 ------- 0 0.0 2.0 69 69
r 0.538 0 1 cbr 500 ------- 0 0.0 2.0 81 81
+ 0.538 1 2 cbr 500 ------- 0 0.0 2.0 81 81
+ 0.538 0 1 cbr 500 ------- 0 0.0 2.0 169 169
d 0.538 0 1 cbr 500 ------- 0 0.0 2.0 169 169
- 0.54 0 1 cbr 500 ------- 0 0.0 2.0 85 85
+ 0.54 0 1 cbr 500 ------- 0 0.0 2.0 170 170
r 0.542 0 1 cbr 500 ------- 0 0.0 2.0 82 82
+ 0.542 1 2 cbr 500 ------- 0 0.0 2.0 82 82
d 0.542 1 2 cbr 500 ------- 0 0.0 2.0 82 82
+ 0.542 0 1 cbr 500 ------- 0 0.0 2.0 171 171
d 0.542 0 1 cbr 500 ------- 0 0.0 2.0 171 171
- 0.542125 1 2 cbr 500 ------- 0 0.0 2.0 75 75
- 0.544 0 1 cbr 500 ------- 0 0.0 2.0 86 86
+ 0.544 0 1 cbr 500 ------- 0 0.0 2.0 172 172
r 0.544313 1 2 cbr 500 ------- 0 0.0 2.0 71 71
r 0.546 0 1 cbr 500 ------- 0 0.0 2.0 83 83
+ 0.546 1 2 cbr 500 ------- 0 0.0 2.0 83 83
+ 0.546 0 1 cbr 500 ------- 0 0.0 2.0 173 173
d 0.546 0 1 cbr 500 ------- 0 0.0 2.0 173 173
- 0.548 0 1 cbr 500 ------- 0 0.0 2.0 87 87
+ 0.548 0 1 cbr 500 ------- 0 0.0 2.0 174 174
- 0.549938 1 2 cbr 500 ------- 0 0.0 2.0 77 77
r 0.55 0 1 cbr 500 ------- 0 0.0 2.0 84 84
+ 0.55 1 2 cbr 500 ------- 0 0.0 2.0 84 84
+ 0.55 0 1 cbr 500 ------- 0 0.0 2.0 175 175
d 0.55 0 1 cbr 500 ------- 0 0.0 2.0 175 175
- 0.552 0 1 cbr 500 ------- 0 0.0 2.0 88 88
+ 0.552 0 1 cbr 500 ------- 0 0.0 2.0 176 176
r 0.552125 1 2 cbr 500 ------- 0 0.0 2.0 73 73
r 0.554 0 1 cbr 500 ------- 0 0.0 2.0 85 85
+ 0.554 1 2 cbr 500 ------- 0 0.0 2.0 85 85
d 0.554 1 2 cbr 500 ------- 0 0.0 2.0 85 85
+ 0.554 0 1 cbr 500 ------- 0 0.0 2.0 177 177
d 0.554 0 1 cbr 500 ------- 0 0.0 2.0 177 177
- 0.556 0 1 cbr 500 ------- 0 0.0 2.0 89 89
+ 0.556 0 1 cbr 500 ------- 0 0.0 2.0 178 178
- 0.55775 1 2 cbr 500 ------- 0 0.0 2.0 79 79
r 0.558 0 1 cbr 500 ------- 0 0.0 2.0 86 86
+ 0.558 1 2 cbr 500 ------- 0 0.0 2.0 86 86
+ 0.558 0 1 cbr 500 ------- 0 0.0 2.0 179 179
d 0.558 0 1 cbr 500 ------- 0 0.0 2.0 179 179
r 0.559938 1 2 cbr 500 ------- 0 0.0 2.0 75 75
- 0.56 0 1 cbr 500 ------- 0 0.0 2.0 90 90
+ 0.56 0 1 cbr 500 ------- 0 0.0 2.0 180 180
r 0.562 0 1 cbr 500 ------- 0 0.0 2.0 87 87
+ 0.562 1 2 cbr 500 ------- 0 0.0 2.0 87 87
d 0.562 1 2 cbr 500 ------- 0 0.0 2.0 87 87
+ 0.562 0 1 cbr 500 ------- 0 0.0 2.0 181 181
d 0.562 0 1 cbr 500 ------- 0 0.0 2.0 181 181
- 0.564 0 1 cbr 500 ------- 0 0.0 2.0 91 91
+ 0.564 0 1 cbr 500 ------- 0 0.0 2.0 182 182
- 0.565563 1 2 cbr 500 ------- 0 0.0 2.0 81 81
r 0.566 0 1 cbr 500 ------- 0 0.0 2.0 88 88
+ 0.566 1 2 cbr 500 ------- 0 0.0 2.0 88 88
+ 0.566 0 1 cbr 500 ------- 0 0.0 2.0 183 183
d 0.566 0 1 cbr 500 ------- 0 0.0 2.0 183 183
r 0.56775 1 2 cbr 500 ------- 0 0.0 2.0 77 77
- 0.568 0 1 cbr 500 ------- 0 0.0 2.0 92 92
+ 0.568 0 1 cbr 500 ------- 0 0.0 2.0 184 184
r 0.57 0 1 cbr 500 ------- 0 0.0 2.0 89 89
+ 0.57 1 2 cbr 500 ------- 0 0.0 2.0 89 89
d 0.57 1 2 cbr 500 ------- 0 0.0 2.0 89 89
+ 0.57 0 1 cbr 500 ------- 0 0.0 2.0 185 185
d 0.57 0 1 cbr 500 ------- 0 0.0 2.0 185 185
- 0.572 0 1 cbr 500 ------- 0 0.0 2.0 93 93
+ 0.572 0 1 cbr 500 ------- 0 0.0 2.0 186 186
- 0.573375 1 2 cbr 500 ------- 0 0.0 2.0 83 83
r 0.574 0 1 cbr 500 ------- 0 0.0 2.0 90 90
+ 0.574 1 2 cbr 500 ------- 0 0.0 2.0 90 90
+ 0.574 0 1 cbr 500 ------- 0 0.0 2.0 187 187
d 0.574 0 1 cbr 500 ------- 0 0.0 2.0 187 187
r 0.575563 1 2 cbr 500 ------- 0 0.0 2.0 79 79
- 0.576 0 1 cbr 500 ------- 0 0.0 2.0 94 94
+ 0.576 0 1 cbr 500 ------- 0 0.0 2.0 188 188
r 0.578 0 1 cbr 500 ------- 0 0.0 2.0 91 91
+ 0.578 1 2 cbr 500 ------- 0 0.0 2.0 91 91
d 0.578 1 2 cbr 500 ------- 0 0.0 2.0 91 91
+ 0.578 0 1 cbr 500 ------- 0 0.0 2.0 189 189
d 0.578 0 1 cbr 500 ------- 0 0.0 2.0 189 189
- 0.58 0 1 cbr 500 ------- 0 0.0 2.0 95 95
+ 0.58 0 1 cbr 500 ------- 0 0.0 2.0 190 190
- 0.581188 1 2 cbr 500 ------- 0 0.0 2.0 84 84
r 0.582 0 1 cbr 500 ------- 0 0.0 2.0 92 92
+ 0.582 1 2 cbr 500 ------- 0 0.0 2.0 92 92
+ 0.582 0 1 cbr 500 ------- 0 0.0 2.0 191 191
d 0.582 0 1 cbr 500 ------- 0 0.0 2.0 191 191
r 0.583375 1 2 cbr 500 ------- 0 0.0 2.0 81 81
- 0.584 0 1 cbr 500 ------- 0 0.0 2.0 96 96
+ 0.584 0 1 cbr 500 ------- 0 0.0 2.0 192 192
r 0.586 0 1 cbr 500 ------- 0 0.0 2.0 93 93
+ 0.586 1 2 cbr 500 ------- 0 0.0 2.0 93 93
d 0.586 1 2 cbr 500 ------- 0 0.0 2.0 93 93
+ 0.586 0 1 cbr 500 ------- 0 0.0 2.0 193 193
d 0.586 0 1 cbr 500 ------- 0 0.0 2.0 193 193
- 0.588 0 1 cbr 500 ------- 0 0.0 2.0 97 97
+ 0.588 0 1 cbr 500 ------- 0 0.0 2.0 194 194
- 0.589 1 2 cbr 500 ------- 0 0.0 2.0 86 86
r 0.59 0 1 cbr 500 ------- 0 0.0 2.0 94 94
+ 0.59 1 2 cbr 500 ------- 0 0.0 2.0 94 94
+ 0.59 0 1 cbr 500 ------- 0 0.0 2.0 195 195
d 0.59 0 1 cbr 500 ------- 0 0.0 2.0 195 195
r 0.591188 1 2 cbr 500 ------- 0 0.0 2.0 83 83
- 0.592 0 1 cbr 500 ------- 0 0.0 2.0 98 98
+ 0.592 0 1 cbr 500 ------- 0 0.0 2.0 196 196
r 0.594 0 1 cbr 500 ------- 0 0.0 2.0 95 95
+ 0.594 1 2 cbr 500 ------- 0 0.0 2.0 95 95