+ 0.1 1 2 cbr 1000 ------- 2 1.0 3.1 0 0
- 0.1 1 2 cbr 1000 ------- 2 1.0 3.1 0 0
+ 0.108 1 2 cbr 1000 ------- 2 1.0 3.1 1 1
- 0.108 1 2 cbr 1000 ------- 2 1.0 3.1 1 1
r 0.114 1 2 cbr 1000 ------- 2 1.0 3.1 0 0
+ 0.114 2 3 cbr 1000 ------- 2 1.0 3.1 0 0
- 0.114 2 3 cbr 1000 ------- 2 1.0 3.1 0 0
+ 0.116 1 2 cbr 1000 ------- 2 1.0 3.1 2 2
- 0.116 1 2 cbr 1000 ------- 2 1.0 3.1 2 2
r 0.122 1 2 cbr 1000 ------- 2 1.0 3.1 1 1
+ 0.122 2 3 cbr 1000 ------- 2 1.0 3.1 1 1
- 0.122 2 3 cbr 1000 ------- 2 1.0 3.1 1 1
+ 0.124 1 2 cbr 1000 ------- 2 1.0 3.1 3 3
- 0.124 1 2 cbr 1000 ------- 2 1.0 3.1 3 3
r 0.128 2 3 cbr 1000 ------- 2 1.0 3.1 0 0
r 0.13 1 2 cbr 1000 ------- 2 1.0 3.1 2 2
+ 0.13 2 3 cbr 1000 ------- 2 1.0 3.1 2 2
- 0.13 2 3 cbr 1000 ------- 2 1.0 3.1 2 2
+ 0.132 1 2 cbr 1000 ------- 2 1.0 3.1 4 4
- 0.132 1 2 cbr 1000 ------- 2 1.0 3.1 4 4
r 0.136 2 3 cbr 1000 ------- 2 1.0 3.1 1 1
r 0.138 1 2 cbr 1000 ------- 2 1.0 3.1 3 3
+ 0.138 2 3 cbr 1000 ------- 2 1.0 3.1 3 3
- 0.138 2 3 cbr 1000 ------- 2 1.0 3.1 3 3
+ 0.14 1 2 cbr 1000 ------- 2 1.0 3.1 5 5
- 0.14 1 2 cbr 1000 ------- 2 1.0 3.1 5 5
r 0.144 2 3 cbr 1000 ------- 2 1.0 3.1 2 2
r 0.146 1 2 cbr 1000 ------- 2 1.0 3.1 4 4
+ 0.146 2 3 cbr 1000 ------- 2 1.0 3.1 4 4
- 0.146 2 3 cbr 1000 ------- 2 1.0 3.1 4 4
+ 0.148 1 2 cbr 1000 ------- 2 1.0 3.1 6 6
- 0.148 1 2 cbr 1000 ------- 2 1.0 3.1 6 6
r 0.152 2 3 cbr 1000 ------- 2 1.0 3.1 3 3
r 0.154 1 2 cbr 1000 ------- 2 1.0 3.1 5 5
+ 0.154 2 3 cbr 1000 ------- 2 1.0 3.1 5 5
- 0.154 2 3 cbr 1000 ------- 2 1.0 3.1 5 5
+ 0.156 1 2 cbr 1000 ------- 2 1.0 3.1 7 7
- 0.156 1 2 cbr 1000 ------- 2 1.0 3.1 7 7
r 0.16 2 3 cbr 1000 ------- 2 1.0 3.1 4 4
r 0.162 1 2 cbr 1000 ------- 2 1.0 3.1 6 6
+ 0.162 2 3 cbr 1000 ------- 2 1.0 3.1 6 6
- 0.162 2 3 cbr 1000 ------- 2 1.0 3.1 6 6
+ 0.164 1 2 cbr 1000 ------- 2 1.0 3.1 8 8
- 0.164 1 2 cbr 1000 ------- 2 1.0 3.1 8 8
r 0.168 2 3 cbr 1000 ------- 2 1.0 3.1 5 5
r 0.17 1 2 cbr 1000 ------- 2 1.0 3.1 7 7
+ 0.17 2 3 cbr 1000 ------- 2 1.0 3.1 7 7
- 0.17 2 3 cbr 1000 ------- 2 1.0 3.1 7 7
+ 0.172 1 2 cbr 1000 ------- 2 1.0 3.1 9 9
- 0.172 1 2 cbr 1000 ------- 2 1.0 3.1 9 9
r 0.176 2 3 cbr 1000 ------- 2 1.0 3.1 6 6
r 0.178 1 2 cbr 1000 ------- 2 1.0 3.1 8 8
+ 0.178 2 3 cbr 1000 ------- 2 1.0 3.1 8 8
- 0.178 2 3 cbr 1000 ------- 2 1.0 3.1 8 8
+ 0.18 1 2 cbr 1000 ------- 2 1.0 3.1 10 10
- 0.18 1 2 cbr 1000 ------- 2 1.0 3.1 10 10
r 0.184 2 3 cbr 1000 ------- 2 1.0 3.1 7 7
r 0.186 1 2 cbr 1000 ------- 2 1.0 3.1 9 9
+ 0.186 2 3 cbr 1000 ------- 2 1.0 3.1 9 9
- 0.186 2 3 cbr 1000 ------- 2 1.0 3.1 9 9
+ 0.188 1 2 cbr 1000 ------- 2 1.0 3.1 11 11
- 0.188 1 2 cbr 1000 ------- 2 1.0 3.1 11 11
r 0.192 2 3 cbr 1000 ------- 2 1.0 3.1 8 8
r 0.194 1 2 cbr 1000 ------- 2 1.0 3.1 10 10
+ 0.194 2 3 cbr 1000 ------- 2 1.0 3.1 10 10
- 0.194 2 3 cbr 1000 ------- 2 1.0 3.1 10 10
+ 0.196 1 2 cbr 1000 ------- 2 1.0 3.1 12 12
- 0.196 1 2 cbr 1000 ------- 2 1.0 3.1 12 12
r 0.2 2 3 cbr 1000 ------- 2 1.0 3.1 9 9
r 0.202 1 2 cbr 1000 ------- 2 1.0 3.1 11 11
+ 0.202 2 3 cbr 1000 ------- 2 1.0 3.1 11 11
- 0.202 2 3 cbr 1000 ------- 2 1.0 3.1 11 11
+ 0.204 1 2 cbr 1000 ------- 2 1.0 3.1 13 13
- 0.204 1 2 cbr 1000 ------- 2 1.0 3.1 13 13
r 0.208 2 3 cbr 1000 ------- 2 1.0 3.1 10 10
r 0.21 1 2 cbr 1000 ------- 2 1.0 3.1 12 12
+ 0.21 2 3 cbr 1000 ------- 2 1.0 3.1 12 12
- 0.21 2 3 cbr 1000 ------- 2 1.0 3.1 12 12
+ 0.212 1 2 cbr 1000 ------- 2 1.0 3.1 14 14
- 0.212 1 2 cbr 1000 ------- 2 1.0 3.1 14 14
r 0.216 2 3 cbr 1000 ------- 2 1.0 3.1 11 11
r 0.218 1 2 cbr 1000 ------- 2 1.0 3.1 13 13
+ 0.218 2 3 cbr 1000 ------- 2 1.0 3.1 13 13
- 0.218 2 3 cbr 1000 ------- 2 1.0 3.1 13 13
+ 0.22 1 2 cbr 1000 ------- 2 1.0 3.1 15 15
- 0.22 1 2 cbr 1000 ------- 2 1.0 3.1 15 15
r 0.224 2 3 cbr 1000 ------- 2 1.0 3.1 12 12
r 0.226 1 2 cbr 1000 ------- 2 1.0 3.1 14 14
+ 0.226 2 3 cbr 1000 ------- 2 1.0 3.1 14 14
- 0.226 2 3 cbr 1000 ------- 2 1.0 3.1 14 14
+ 0.228 1 2 cbr 1000 ------- 2 1.0 3.1 16 16
- 0.228 1 2 cbr 1000 ------- 2 1.0 3.1 16 16
r 0.232 2 3 cbr 1000 ------- 2 1.0 3.1 13 13
r 0.234 1 2 cbr 1000 ------- 2 1.0 3.1 15 15
+ 0.234 2 3 cbr 1000 ------- 2 1.0 3.1 15 15
- 0.234 2 3 cbr 1000 ------- 2 1.0 3.1 15 15
+ 0.236 1 2 cbr 1000 ------- 2 1.0 3.1 17 17
- 0.236 1 2 cbr 1000 ------- 2 1.0 3.1 17 17
r 0.24 2 3 cbr 1000 ------- 2 1.0 3.1 14 14
r 0.242 1 2 cbr 1000 ------- 2 1.0 3.1 16 16
+ 0.242 2 3 cbr 1000 ------- 2 1.0 3.1 16 16
- 0.242 2 3 cbr 1000 ------- 2 1.0 3.1 16 16
+ 0.244 1 2 cbr 1000 ------- 2 1.0 3.1 18 18
- 0.244 1 2 cbr 1000 ------- 2 1.0 3.1 18 18
r 0.248 2 3 cbr 1000 ------- 2 1.0 3.1 15 15
r 0.25 1 2 cbr 1000 ------- 2 1.0 3.1 17 17
+ 0.25 2 3 cbr 1000 ------- 2 1.0 3.1 17 17
- 0.25 2 3 cbr 1000 ------- 2 1.0 3.1 17 17
+ 0.252 1 2 cbr 1000 ------- 2 1.0 3.1 19 19
- 0.252 1 2 cbr 1000 ------- 2 1.0 3.1 19 19
r 0.256 2 3 cbr 1000 ------- 2 1.0 3.1 16 16
r 0.258 1 2 cbr 1000 ------- 2 1.0 3.1 18 18
+ 0.258 2 3 cbr 1000 ------- 2 1.0 3.1 18 18
- 0.258 2 3 cbr 1000 ------- 2 1.0 3.1 18 18
+ 0.26 1 2 cbr 1000 ------- 2 1.0 3.1 20 20
- 0.26 1 2 cbr 1000 ------- 2 1.0 3.1 20 20
r 0.264 2 3 cbr 1000 ------- 2 1.0 3.1 17 17
r 0.266 1 2 cbr 1000 ------- 2 1.0 3.1 19 19
+ 0.266 2 3 cbr 1000 ------- 2 1.0 3.1 19 19
- 0.266 2 3 cbr 1000 ------- 2 1.0 3.1 19 19
+ 0.268 1 2 cbr 1000 ------- 2 1.0 3.1 21 21
- 0.268 1 2 cbr 1000 ------- 2 1.0 3.1 21 21
r 0.272 2 3 cbr 1000 ------- 2 1.0 3.1 18 18
r 0.274 1 2 cbr 1000 ------- 2 1.0 3.1 20 20
+ 0.274 2 3 cbr 1000 ------- 2 1.0 3.1 20 20
- 0.274 2 3 cbr 1000 ------- 2 1.0 3.1 20 20
+ 0.276 1 2 cbr 1000 ------- 2 1.0 3.1 22 22
- 0.276 1 2 cbr 1000 ------- 2 1.0 3.1 22 22
r 0.28 2 3 cbr 1000 ------- 2 1.0 3.1 19 19
r 0.282 1 2 cbr 1000 ------- 2 1.0 3.1 21 21
+ 0.282 2 3 cbr 1000 ------- 2 1.0 3.1 21 21
- 0.282 2 3 cbr 1000 ------- 2 1.0 3.1 21 21
+ 0.284 1 2 cbr 1000 ------- 2 1.0 3.1 23 23
- 0.284 1 2 cbr 1000 ------- 2 1.0 3.1 23 23
r 0.288 2 3 cbr 1000 ------- 2 1.0 3.1 20 20
r 0.29 1 2 cbr 1000 ------- 2 1.0 3.1 22 22
+ 0.29 2 3 cbr 1000 ------- 2 1.0 3.1 22 22
- 0.29 2 3 cbr 1000 ------- 2 1.0 3.1 22 22
+ 0.292 1 2 cbr 1000 ------- 2 1.0 3.1 24 24
- 0.292 1 2 cbr 1000 ------- 2 1.0 3.1 24 24
r 0.296 2 3 cbr 1000 ------- 2 1.0 3.1 21 21
r 0.298 1 2 cbr 1000 ------- 2 1.0 3.1 23 23
+ 0.298 2 3 cbr 1000 ------- 2 1.0 3.1 23 23
- 0.298 2 3 cbr 1000 ------- 2 1.0 3.1 23 23
+ 0.3 1 2 cbr 1000 ------- 2 1.0 3.1 25 25
- 0.3 1 2 cbr 1000 ------- 2 1.0 3.1 25 25
r 0.304 2 3 cbr 1000 ------- 2 1.0 3.1 22 22
r 0.306 1 2 cbr 1000 ------- 2 1.0 3.1 24 24
+ 0.306 2 3 cbr 1000 ------- 2 1.0 3.1 24 24
- 0.306 2 3 cbr 1000 ------- 2 1.0 3.1 24 24
+ 0.308 1 2 cbr 1000 ------- 2 1.0 3.1 26 26
- 0.308 1 2 cbr 1000 ------- 2 1.0 3.1 26 26
r 0.312 2 3 cbr 1000 ------- 2 1.0 3.1 23 23
r 0.314 1 2 cbr 1000 ------- 2 1.0 3.1 25 25
+ 0.314 2 3 cbr 1000 ------- 2 1.0 3.1 25 25
- 0.314 2 3 cbr 1000 ------- 2 1.0 3.1 25 25
+ 0.316 1 2 cbr 1000 ------- 2 1.0 3.1 27 27
- 0.316 1 2 cbr 1000 ------- 2 1.0 3.1 27 27
r 0.32 2 3 cbr 1000 ------- 2 1.0 3.1 24 24
r 0.322 1 2 cbr 1000 ------- 2 1.0 3.1 26 26
+ 0.322 2 3 cbr 1000 ------- 2 1.0 3.1 26 26
- 0.322 2 3 cbr 1000 ------- 2 1.0 3.1 26 26
+ 0.324 1 2 cbr 1000 ------- 2 1.0 3.1 28 28
- 0.324 1 2 cbr 1000 ------- 2 1.0 3.1 28 28
r 0.328 2 3 cbr 1000 ------- 2 1.0 3.1 25 25
r 0.33 1 2 cbr 1000 ------- 2 1.0 3.1 27 27
+ 0.33 2 3 cbr 1000 ------- 2 1.0 3.1 27 27
- 0.33 2 3 cbr 1000 ------- 2 1.0 3.1 27 27
+ 0.332 1 2 cbr 1000 ------- 2 1.0 3.1 29 29
- 0.332 1 2 cbr 1000 ------- 2 1.0 3.1 29 29
r 0.336 2 3 cbr 1000 ------- 2 1.0 3.1 26 26
r 0.338 1 2 cbr 1000 ------- 2 1.0 3.1 28 28
+ 0.338 2 3 cbr 1000 ------- 2 1.0 3.1 28 28
- 0.338 2 3 cbr 1000 ------- 2 1.0 3.1 28 28
+ 0.34 1 2 cbr 1000 ------- 2 1.0 3.1 30 30
- 0.34 1 2 cbr 1000 ------- 2 1.0 3.1 30 30
r 0.344 2 3 cbr 1000 ------- 2 1.0 3.1 27 27
r 0.346 1 2 cbr 1000 ------- 2 1.0 3.1 29 29
+ 0.346 2 3 cbr 1000 ------- 2 1.0 3.1 29 29
- 0.346 2 3 cbr 1000 ------- 2 1.0 3.1 29 29
+ 0.348 1 2 cbr 1000 ------- 2 1.0 3.1 31 31
- 0.348 1 2 cbr 1000 ------- 2 1.0 3.1 31 31
r 0.352 2 3 cbr 1000 ------- 2 1.0 3.1 28 28
r 0.354 1 2 cbr 1000 ------- 2 1.0 3.1 30 30
+ 0.354 2 3 cbr 1000 ------- 2 1.0 3.1 30 30
- 0.354 2 3 cbr 1000 ------- 2 1.0 3.1 30 30
+ 0.356 1 2 cbr 1000 ------- 2 1.0 3.1 32 32
- 0.356 1 2 cbr 1000 ------- 2 1.0 3.1 32 32
r 0.36 2 3 cbr 1000 ------- 2 1.0 3.1 29 29
r 0.362 1 2 cbr 1000 ------- 2 1.0 3.1 31 31
+ 0.362 2 3 cbr 1000 ------- 2 1.0 3.1 31 31
- 0.362 2 3 cbr 1000 ------- 2 1.0 3.1 31 31
+ 0.364 1 2 cbr 1000 ------- 2 1.0 3.1 33 33
- 0.364 1 2 cbr 1000 ------- 2 1.0 3.1 33 33
r 0.368 2 3 cbr 1000 ------- 2 1.0 3.1 30 30
r 0.37 1 2 cbr 1000 ------- 2 1.0 3.1 32 32
+ 0.37 2 3 cbr 1000 ------- 2 1.0 3.1 32 32
- 0.37 2 3 cbr 1000 ------- 2 1.0 3.1 32 32
+ 0.372 1 2 cbr 1000 ------- 2 1.0 3.1 34 34
- 0.372 1 2 cbr 1000 ------- 2 1.0 3.1 34 34
r 0.376 2 3 cbr 1000 ------- 2 1.0 3.1 31 31
r 0.378 1 2 cbr 1000 ------- 2 1.0 3.1 33 33
+ 0.378 2 3 cbr 1000 ------- 2 1.0 3.1 33 33
- 0.378 2 3 cbr 1000 ------- 2 1.0 3.1 33 33
+ 0.38 1 2 cbr 1000 ------- 2 1.0 3.1 35 35
- 0.38 1 2 cbr 1000 ------- 2 1.0 3.1 35 35
r 0.384 2 3 cbr 1000 ------- 2 1.0 3.1 32 32
r 0.386 1 2 cbr 1000 ------- 2 1.0 3.1 34 34
+ 0.386 2 3 cbr 1000 ------- 2 1.0 3.1 34 34
- 0.386 2 3 cbr 1000 ------- 2 1.0 3.1 34 34
+ 0.388 1 2 cbr 1000 ------- 2 1.0 3.1 36 36
- 0.388 1 2 cbr 1000 ------- 2 1.0 3.1 36 36
r 0.392 2 3 cbr 1000 ------- 2 1.0 3.1 33 33
r 0.394 1 2 cbr 1000 ------- 2 1.0 3.1 35 35
+ 0.394 2 3 cbr 1000 ------- 2 1.0 3.1 35 35
- 0.394 2 3 cbr 1000 ------- 2 1.0 3.1 35 35
+ 0.396 1 2 cbr 1000 ------- 2 1.0 3.1 37 37
- 0.396 1 2 cbr 1000 ------- 2 1.0 3.1 37 37
r 0.4 2 3 cbr 1000 ------- 2 1.0 3.1 34 34
r 0.402 1 2 cbr 1000 ------- 2 1.0 3.1 36 36
+ 0.402 2 3 cbr 1000 ------- 2 1.0 3.1 36 36
- 0.402 2 3 cbr 1000 ------- 2 1.0 3.1 36 36
+ 0.404 1 2 cbr 1000 ------- 2 1.0 3.1 38 38
- 0.404 1 2 cbr 1000 ------- 2 1.0 3.1 38 38
r 0.408 2 3 cbr 1000 ------- 2 1.0 3.1 35 35
r 0.41 1 2 cbr 1000 ------- 2 1.0 3.1 37 37
+ 0.41 2 3 cbr 1000 ------- 2 1.0 3.1 37 37
- 0.41 2 3 cbr 1000 ------- 2 1.0 3.1 37 37
+ 0.412 1 2 cbr 1000 ------- 2 1.0 3.1 39 39
- 0.412 1 2 cbr 1000 ------- 2 1.0 3.1 39 39
r 0.416 2 3 cbr 1000 ------- 2 1.0 3.1 36 36
r 0.418 1 2 cbr 1000 ------- 2 1.0 3.1 38 38
+ 0.418 2 3 cbr 1000 ------- 2 1.0 3.1 38 38
- 0.418 2 3 cbr 1000 ------- 2 1.0 3.1 38 38
+ 0.42 1 2 cbr 1000 ------- 2 1.0 3.1 40 40
- 0.42 1 2 cbr 1000 ------- 2 1.0 3.1 40 40
r 0.424 2 3 cbr 1000 ------- 2 1.0 3.1 37 37
r 0.426 1 2 cbr 1000 ------- 2 1.0 3.1 39 39
+ 0.426 2 3 cbr 1000 ------- 2 1.0 3.1 39 39
- 0.426 2 3 cbr 1000 ------- 2 1.0 3.1 39 39
+ 0.428 1 2 cbr 1000 ------- 2 1.0 3.1 41 41
- 0.428 1 2 cbr 1000 ------- 2 1.0 3.1 41 41
r 0.432 2 3 cbr 1000 ------- 2 1.0 3.1 38 38
r 0.434 1 2 cbr 1000 ------- 2 1.0 3.1 40 40
+ 0.434 2 3 cbr 1000 ------- 2 1.0 3.1 40 40
- 0.434 2 3 cbr 1000 ------- 2 1.0 3.1 40 40
+ 0.436 1 2 cbr 1000 ------- 2 1.0 3.1 42 42
- 0.436 1 2 cbr 1000 ------- 2 1.0 3.1 42 42
r 0.44 2 3 cbr 1000 ------- 2 1.0 3.1 39 39
r 0.442 1 2 cbr 1000 ------- 2 1.0 3.1 41 41
+ 0.442 2 3 cbr 1000 ------- 2 1.0 3.1 41 41
- 0.442 2 3 cbr 1000 ------- 2 1.0 3.1 41 41
+ 0.444 1 2 cbr 1000 ------- 2 1.0 3.1 43 43
- 0.444 1 2 cbr 1000 ------- 2 1.0 3.1 43 43
r 0.448 2 3 cbr 1000 ------- 2 1.0 3.1 40 40
r 0.45 1 2 cbr 1000 ------- 2 1.0 3.1 42 42
+ 0.45 2 3 cbr 1000 ------- 2 1.0 3.1 42 42
- 0.45 2 3 cbr 1000 ------- 2 1.0 3.1 42 42
+ 0.452 1 2 cbr 1000 ------- 2 1.0 3.1 44 44
- 0.452 1 2 cbr 1000 ------- 2 1.0 3.1 44 44
r 0.456 2 3 cbr 1000 ------- 2 1.0 3.1 41 41
r 0.458 1 2 cbr 1000 ------- 2 1.0 3.1 43 43
+ 0.458 2 3 cbr 1000 ------- 2 1.0 3.1 43 43
- 0.458 2 3 cbr 1000 ------- 2 1.0 3.1 43 43
+ 0.46 1 2 cbr 1000 ------- 2 1.0 3.1 45 45
- 0.46 1 2 cbr 1000 ------- 2 1.0 3.1 45 45
r 0.464 2 3 cbr 1000 ------- 2 1.0 3.1 42 42
r 0.466 1 2 cbr 1000 ------- 2 1.0 3.1 44 44
+ 0.466 2 3 cbr 1000 ------- 2 1.0 3.1 44 44
- 0.466 2 3 cbr 1000 ------- 2 1.0 3.1 44 44
+ 0.468 1 2 cbr 1000 ------- 2 1.0 3.1 46 46
- 0.468 1 2 cbr 1000 ------- 2 1.0 3.1 46 46
r 0.472 2 3 cbr 1000 ------- 2 1.0 3.1 43 43
r 0.474 1 2 cbr 1000 ------- 2 1.0 3.1 45 45
+ 0.474 2 3 cbr 1000 ------- 2 1.0 3.1 45 45
- 0.474 2 3 cbr 1000 ------- 2 1.0 3.1 45 45
+ 0.476 1 2 cbr 1000 ------- 2 1.0 3.1 47 47
- 0.476 1 2 cbr 1000 ------- 2 1.0 3.1 47 47
r 0.48 2 3 cbr 1000 ------- 2 1.0 3.1 44 44
r 0.482 1 2 cbr 1000 ------- 2 1.0 3.1 46 46
+ 0.482 2 3 cbr 1000 ------- 2 1.0 3.1 46 46
- 0.482 2 3 cbr 1000 ------- 2 1.0 3.1 46 46
+ 0.484 1 2 cbr 1000 ------- 2 1.0 3.1 48 48
- 0.484 1 2 cbr 1000 ------- 2 1.0 3.1 48 48
r 0.488 2 3 cbr 1000 ------- 2 1.0 3.1 45 45
r 0.49 1 2 cbr 1000 ------- 2 1.0 3.1 47 47
+ 0.49 2 3 cbr 1000 ------- 2 1.0 3.1 47 47
- 0.49 2 3 cbr 1000 ------- 2 1.0 3.1 47 47
+ 0.492 1 2 cbr 1000 ------- 2 1.0 3.1 49 49
- 0.492 1 2 cbr 1000 ------- 2 1.0 3.1 49 49
r 0.496 2 3 cbr 1000 ------- 2 1.0 3.1 46 46
r 0.498 1 2 cbr 1000 ------- 2 1.0 3.1 48 48
+ 0.498 2 3 cbr 1000 ------- 2 1.0 3.1 48 48
- 0.498 2 3 cbr 1000 ------- 2 1.0 3.1 48 48
+ 0.5 0 2 tcp 40 ------- 1 0.0 3.0 0 50
- 0.5 0 2 tcp 40 ------- 1 0.0 3.0 0 50
+ 0.5 1 2 cbr 1000 ------- 2 1.0 3.1 50 51
- 0.5 1 2 cbr 1000 ------- 2 1.0 3.1 50 51
r 0.504 2 3 cbr 1000 ------- 2 1.0 3.1 47 47
r 0.506 1 2 cbr 1000 ------- 2 1.0 3.1 49 49
+ 0.506 2 3 cbr 1000 ------- 2 1.0 3.1 49 49
- 0.506 2 3 cbr 1000 ------- 2 1.0 3.1 49 49
+ 0.508 1 2 cbr 1000 ------- 2 1.0 3.1 51 52
- 0.508 1 2 cbr 1000 ------- 2 1.0 3.1 51 52
r 0.51008 0 2 tcp 40 ------- 1 0.0 3.0 0 50
+ 0.51008 2 3 tcp 40 ------- 1 0.0 3.0 0 50
- 0.51008 2 3 tcp 40 ------- 1 0.0 3.0 0 50
r 0.512 2 3 cbr 1000 ------- 2 1.0 3.1 48 48
r 0.514 1 2 cbr 1000 ------- 2 1.0 3.1 50 51
+ 0.514 2 3 cbr 1000 ------- 2 1.0 3.1 50 51
- 0.514 2 3 cbr 1000 ------- 2 1.0 3.1 50 51
+ 0.516 1 2 cbr 1000 ------- 2 1.0 3.1 52 53
- 0.516 1 2 cbr 1000 ------- 2 1.0 3.1 52 53
r 0.52 2 3 cbr 1000 ------- 2 1.0 3.1 49 49
r 0.52024 2 3 tcp 40 ------- 1 0.0 3.0 0 50
+ 0.52024 3 2 ack 40 ------- 1 3.0 0.0 0 54
- 0.52024 3 2 ack 40 ------- 1 3.0 0.0 0 54
r 0.522 1 2 cbr 1000 ------- 2 1.0 3.1 51 52
+ 0.522 2 3 cbr 1000 ------- 2 1.0 3.1 51 52
- 0.522 2 3 cbr 1000 ------- 2 1.0 3.1 51 52
+ 0.524 1 2 cbr 1000 ------- 2 1.0 3.1 53 55
- 0.524 1 2 cbr 1000 ------- 2 1.0 3.1 53 55
r 0.528 2 3 cbr 1000 ------- 2 1.0 3.1 50 51
r 0.53 1 2 cbr 1000 ------- 2 1.0 3.1 52 53
+ 0.53 2 3 cbr 1000 ------- 2 1.0 3.1 52 53
- 0.53 2 3 cbr 1000 ------- 2 1.0 3.1 52 53
r 0.5304 3 2 ack 40 ------- 1 3.0 0.0 0 54
+ 0.5304 2 0 ack 40 ------- 1 3.0 0.0 0 54
- 0.5304 2 0 ack 40 ------- 1 3.0 0.0 0 54
+ 0.532 1 2 cbr 1000 ------- 2 1.0 3.1 54 56
- 0.532 1 2 cbr 1000 ------- 2 1.0 3.1 54 56
r 0.536 2 3 cbr 1000 ------- 2 1.0 3.1 51 52
r 0.538 1 2 cbr 1000 ------- 2 1.0 3.1 53 55
+ 0.538 2 3 cbr 1000 ------- 2 1.0 3.1 53 55
- 0.538 2 3 cbr 1000 ------- 2 1.0 3.1 53 55
+ 0.54 1 2 cbr 1000 ------- 2 1.0 3.1 55 57
- 0.54 1 2 cbr 1000 ------- 2 1.0 3.1 55 57
r 0.54048 2 0 ack 40 ------- 1 3.0 0.0 0 54
+ 0.54048 0 2 tcp 1040 ------- 1 0.0 3.0 1 58
- 0.54048 0 2 tcp 1040 ------- 1 0.0 3.0 1 58
+ 0.54048 0 2 tcp 1040 ------- 1 0.0 3.0 2 59
- 0.54256 0 2 tcp 1040 ------- 1 0.0 3.0 2 59
r 0.544 2 3 cbr 1000 ------- 2 1.0 3.1 52 53
r 0.546 1 2 cbr 1000 ------- 2 1.0 3.1 54 56
+ 0.546 2 3 cbr 1000 ------- 2 1.0 3.1 54 56
- 0.546 2 3 cbr 1000 ------- 2 1.0 3.1 54 56
+ 0.548 1 2 cbr 1000 ------- 2 1.0 3.1 56 60
- 0.548 1 2 cbr 1000 ------- 2 1.0 3.1 56 60
r 0.552 2 3 cbr 1000 ------- 2 1.0 3.1 53 55
r 0.55256 0 2 tcp 1040 ------- 1 0.0 3.0 1 58
+ 0.55256 2 3 tcp 1040 ------- 1 0.0 3.0 1 58
- 0.55256 2 3 tcp 1040 ------- 1 0.0 3.0 1 58
r 0.554 1 2 cbr 1000 ------- 2 1.0 3.1 55 57
+ 0.554 2 3 cbr 1000 ------- 2 1.0 3.1 55 57
r 0.55464 0 2 tcp 1040 ------- 1 0.0 3.0 2 59
+ 0.55464 2 3 tcp 1040 ------- 1 0.0 3.0 2 59
+ 0.556 1 2 cbr 1000 ------- 2 1.0 3.1 57 61
- 0.556 1 2 cbr 1000 ------- 2 1.0 3.1 57 61
- 0.55672 2 3 cbr 1000 ------- 2 1.0 3.1 55 57
r 0.56 2 3 cbr 1000 ------- 2 1.0 3.1 54 56
- 0.56072 2 3 tcp 1040 ------- 1 0.0 3.0 2 59
r 0.562 1 2 cbr 1000 ------- 2 1.0 3.1 56 60
+ 0.562 2 3 cbr 1000 ------- 2 1.0 3.1 56 60
+ 0.564 1 2 cbr 1000 ------- 2 1.0 3.1 58 62
- 0.564 1 2 cbr 1000 ------- 2 1.0 3.1 58 62
- 0.56488 2 3 cbr 1000 ------- 2 1.0 3.1 56 60
r 0.56672 2 3 tcp 1040 ------- 1 0.0 3.0 1 58
+ 0.56672 3 2 ack 40 ------- 1 3.0 0.0 1 63
- 0.56672 3 2 ack 40 ------- 1 3.0 0.0 1 63
r 0.57 1 2 cbr 1000 ------- 2 1.0 3.1 57 61
+ 0.57 2 3 cbr 1000 ------- 2 1.0 3.1 57 61
- 0.57 2 3 cbr 1000 ------- 2 1.0 3.1 57 61
r 0.57072 2 3 cbr 1000 ------- 2 1.0 3.1 55 57
+ 0.572 1 2 cbr 1000 ------- 2 1.0 3.1 59 64
- 0.572 1 2 cbr 1000 ------- 2 1.0 3.1 59 64
r 0.57488 2 3 tcp 1040 ------- 1 0.0 3.0 2 59
+ 0.57488 3 2 ack 40 ------- 1 3.0 0.0 2 65
- 0.57488 3 2 ack 40 ------- 1 3.0 0.0 2 65
r 0.57688 3 2 ack 40 ------- 1 3.0 0.0 1 63
+ 0.57688 2 0 ack 40 ------- 1 3.0 0.0 1 63
- 0.57688 2 0 ack 40 ------- 1 3.0 0.0 1 63
r 0.578 1 2 cbr 1000 ------- 2 1.0 3.1 58 62
+ 0.578 2 3 cbr 1000 ------- 2 1.0 3.1 58 62
- 0.578 2 3 cbr 1000 ------- 2 1.0 3.1 58 62
r 0.57888 2 3 cbr 1000 ------- 2 1.0 3.1 56 60
+ 0.58 1 2 cbr 1000 ------- 2 1.0 3.1 60 66
- 0.58 1 2 cbr 1000 ------- 2 1.0 3.1 60 66
r 0.584 2 3 cbr 1000 ------- 2 1.0 3.1 57 61
r 0.58504 3 2 ack 40 ------- 1 3.0 0.0 2 65
+ 0.58504 2 0 ack 40 ------- 1 3.0 0.0 2 65
- 0.58504 2 0 ack 40 ------- 1 3.0 0.0 2 65
r 0.586 1 2 cbr 1000 ------- 2 1.0 3.1 59 64
+ 0.586 2 3 cbr 1000 ------- 2 1.0 3.1 59 64
- 0.586 2 3 cbr 1000 ------- 2 1.0 3.1 59 64
r 0.58696 2 0 ack 40 ------- 1 3.0 0.0 1 63
+ 0.58696 0 2 tcp 1040 ------- 1 0.0 3.0 3 67
- 0.58696 0 2 tcp 1040 ------- 1 0.0 3.0 3 67
+ 0.58696 0 2 tcp 1040 ------- 1 0.0 3.0 4 68
+ 0.588 1 2 cbr 1000 ------- 2 1.0 3.1 61 69
- 0.588 1 2 cbr 1000 ------- 2 1.0 3.1 61 69
- 0.58904 0 2 tcp 1040 ------- 1 0.0 3.0 4 68
r 0.592 2 3 cbr 1000 ------- 2 1.0 3.1 58 62
r 0.594 1 2 cbr 1000 ------- 2 1.0 3.1 60 66
+ 0.594 2 3 cbr 1000 ------- 2 1.0 3.1 60 66
- 0.594 2 3 cbr 1000 ------- 2 1.0 3.1 60 66
r 0.59512 2 0 ack 40 ------- 1 3.0 0.0 2 65
+ 0.59512 0 2 tcp 1040 ------- 1 0.0 3.0 5 70
- 0.59512 0 2 tcp 1040 ------- 1 0.0 3.0 5 70
+ 0.59512 0 2 tcp 1040 ------- 1 0.0 3.0 6 71
+ 0.596 1 2 cbr 1000 ------- 2 1.0 3.1 62 72
- 0.596 1 2 cbr 1000 ------- 2 1.0 3.1 62 72
- 0.5972 0 2 tcp 1040 ------- 1 0.0 3.0 6 71
r 0.59904 0 2 tcp 1040 ------- 1 0.0 3.0 3 67
+ 0.59904 2 3 tcp 1040 ------- 1 0.0 3.0 3 67
- 0.59904 2 3 tcp 1040 ------- 1 0.0 3.0 3 67
r 0.6 2 3 cbr 1000 ------- 2 1.0 3.1 59 64
r 0.60112 0 2 tcp 1040 ------- 1 0.0 3.0 4 68
+ 0.60112 2 3 tcp 1040 ------- 1 0.0 3.0 4 68
r 0.602 1 2 cbr 1000 ------- 2 1.0 3.1 61 69
+ 0.602 2 3 cbr 1000 ------- 2 1.0 3.1 61 69
- 0.6032 2 3 tcp 1040 ------- 1 0.0 3.0 4 68
+ 0.604 1 2 cbr 1000 ------- 2 1.0 3.1 63 73
- 0.604 1 2 cbr 1000 ------- 2 1.0 3.1 63 73
r 0.6072 0 2 tcp 1040 ------- 1 0.0 3.0 5 70
+ 0.6072 2 3 tcp 1040 ------- 1 0.0 3.0 5 70
- 0.60736 2 3 cbr 1000 ------- 2 1.0 3.1 61 69
r 0.608 2 3 cbr 1000 ------- 2 1.0 3.1 60 66
r 0.60928 0 2 tcp 1040 ------- 1 0.0 3.0 6 71
+ 0.60928 2 3 tcp 1040 ------- 1 0.0 3.0 6 71
r 0.61 1 2 cbr 1000 ------- 2 1.0 3.1 62 72
+ 0.61 2 3 cbr 1000 ------- 2 1.0 3.1 62 72
- 0.61136 2 3 tcp 1040 ------- 1 0.0 3.0 5 70
+ 0.612 1 2 cbr 1000 ------- 2 1.0 3.1 64 74
- 0.612 1 2 cbr 1000 ------- 2 1.0 3.1 64 74
r 0.6132 2 3 tcp 1040 ------- 1 0.0 3.0 3 67
+ 0.6132 3 2 ack 40 ------- 1 3.0 0.0 3 75
- 0.6132 3 2 ack 40 ------- 1 3.0 0.0 3 75
- 0.61552 2 3 tcp 1040 ------- 1 0.0 3.0 6 71
r 0.61736 2 3 tcp 1040 ------- 1 0.0 3.0 4 68
+ 0.61736 3 2 ack 40 ------- 1 3.0 0.0 4 76
- 0.61736 3 2 ack 40 ------- 1 3.0 0.0 4 76
r 0.618 1 2 cbr 1000 ------- 2 1.0 3.1 63 73
+ 0.618 2 3 cbr 1000 ------- 2 1.0 3.1 63 73
- 0.61968 2 3 cbr 1000 ------- 2 1.0 3.1 62 72
+ 0.62 1 2 cbr 1000 ------- 2 1.0 3.1 65 77
- 0.62 1 2 cbr 1000 ------- 2 1.0 3.1 65 77
r 0.62136 2 3 cbr 1000 ------- 2 1.0 3.1 61 69
r 0.62336 3 2 ack 40 ------- 1 3.0 0.0 3 75
+ 0.62336 2 0 ack 40 ------- 1 3.0 0.0 3 75
- 0.62336 2 0 ack 40 ------- 1 3.0 0.0 3 75
- 0.62368 2 3 cbr 1000 ------- 2 1.0 3.1 63 73
r 0.62552 2 3 tcp 1040 ------- 1 0.0 3.0 5 70
+ 0.62552 3 2 ack 40 ------- 1 3.0 0.0 5 78
- 0.62552 3 2 ack 40 ------- 1 3.0 0.0 5 78
r 0.626 1 2 cbr 1000 ------- 2 1.0 3.1 64 74
+ 0.626 2 3 cbr 1000 ------- 2 1.0 3.1 64 74
r 0.62752 3 2 ack 40 ------- 1 3.0 0.0 4 76
+ 0.62752 2 0 ack 40 ------- 1 3.0 0.0 4 76
- 0.62752 2 0 ack 40 ------- 1 3.0 0.0 4 76
- 0.62768 2 3 cbr 1000 ------- 2 1.0 3.1 64 74
+ 0.628 1 2 cbr 1000 ------- 2 1.0 3.1 66 79
- 0.628 1 2 cbr 1000 ------- 2 1.0 3.1 66 79
r 0.62968 2 3 tcp 1040 ------- 1 0.0 3.0 6 71
+ 0.62968 3 2 ack 40 ------- 1 3.0 0.0 6 80
- 0.62968 3 2 ack 40 ------- 1 3.0 0.0 6 80
r 0.63344 2 0 ack 40 ------- 1 3.0 0.0 3 75
+ 0.63344 0 2 tcp 1040 ------- 1 0.0 3.0 7 81
- 0.63344 0 2 tcp 1040 ------- 1 0.0 3.0 7 81
+ 0.63344 0 2 tcp 1040 ------- 1 0.0 3.0 8 82
r 0.63368 2 3 cbr 1000 ------- 2 1.0 3.1 62 72
r 0.634 1 2 cbr 1000 ------- 2 1.0 3.1 65 77
+ 0.634 2 3 cbr 1000 ------- 2 1.0 3.1 65 77
- 0.634 2 3 cbr 1000 ------- 2 1.0 3.1 65 77
- 0.63552 0 2 tcp 1040 ------- 1 0.0 3.0 8 82
r 0.63568 3 2 ack 40 ------- 1 3.0 0.0 5 78
+ 0.63568 2 0 ack 40 ------- 1 3.0 0.0 5 78
- 0.63568 2 0 ack 40 ------- 1 3.0 0.0 5 78
+ 0.636 1 2 cbr 1000 ------- 2 1.0 3.1 67 83
- 0.636 1 2 cbr 1000 ------- 2 1.0 3.1 67 83
r 0.6376 2 0 ack 40 ------- 1 3.0 0.0 4 76
+ 0.6376 0 2 tcp 1040 ------- 1 0.0 3.0 9 84
- 0.6376 0 2 tcp 1040 ------- 1 0.0 3.0 9 84
+ 0.6376 0 2 tcp 1040 ------- 1 0.0 3.0 10 85
r 0.63768 2 3 cbr 1000 ------- 2 1.0 3.1 63 73
- 0.63968 0 2 tcp 1040 ------- 1 0.0 3.0 10 85
r 0.63984 3 2 ack 40 ------- 1 3.0 0.0 6 80
+ 0.63984 2 0 ack 40 ------- 1 3.0 0.0 6 80
- 0.63984 2 0 ack 40 ------- 1 3.0 0.0 6 80
r 0.64168 2 3 cbr 1000 ------- 2 1.0 3.1 64 74
r 0.642 1 2 cbr 1000 ------- 2 1.0 3.1 66 79
+ 0.642 2 3 cbr 1000 ------- 2 1.0 3.1 66 79
- 0.642 2 3 cbr 1000 ------- 2 1.0 3.1 66 79
+ 0.644 1 2 cbr 1000 ------- 2 1.0 3.1 68 86
- 0.644 1 2 cbr 1000 ------- 2 1.0 3.1 68 86
r 0.64552 0 2 tcp 1040 ------- 1 0.0 3.0 7 81
+ 0.64552 2 3 tcp 1040 ------- 1 0.0 3.0 7 81
r 0.64576 2 0 ack 40 ------- 1 3.0 0.0 5 78
+ 0.64576 0 2 tcp 1040 ------- 1 0.0 3.0 11 87
- 0.64576 0 2 tcp 1040 ------- 1 0.0 3.0 11 87
+ 0.64576 0 2 tcp 1040 ------- 1 0.0 3.0 12 88
- 0.646 2 3 tcp 1040 ------- 1 0.0 3.0 7 81
r 0.6476 0 2 tcp 1040 ------- 1 0.0 3.0 8 82
+ 0.6476 2 3 tcp 1040 ------- 1 0.0 3.0 8 82
- 0.64784 0 2 tcp 1040 ------- 1 0.0 3.0 12 88
r 0.648 2 3 cbr 1000 ------- 2 1.0 3.1 65 77
r 0.64968 0 2 tcp 1040 ------- 1 0.0 3.0 9 84
+ 0.64968 2 3 tcp 1040 ------- 1 0.0 3.0 9 84
r 0.64992 2 0 ack 40 ------- 1 3.0 0.0 6 80
+ 0.64992 0 2 tcp 1040 ------- 1 0.0 3.0 13 89
- 0.64992 0 2 tcp 1040 ------- 1 0.0 3.0 13 89
+ 0.64992 0 2 tcp 1040 ------- 1 0.0 3.0 14 90
r 0.65 1 2 cbr 1000 ------- 2 1.0 3.1 67 83
+ 0.65 2 3 cbr 1000 ------- 2 1.0 3.1 67 83
- 0.65016 2 3 tcp 1040 ------- 1 0.0 3.0 8 82
r 0.65176 0 2 tcp 1040 ------- 1 0.0 3.0 10 85
+ 0.65176 2 3 tcp 1040 ------- 1 0.0 3.0 10 85
- 0.652 0 2 tcp 1040 ------- 1 0.0 3.0 14 90
+ 0.652 1 2 cbr 1000 ------- 2 1.0 3.1 69 91
- 0.652 1 2 cbr 1000 ------- 2 1.0 3.1 69 91
- 0.65432 2 3 tcp 1040 ------- 1 0.0 3.0 9 84
r 0.656 2 3 cbr 1000 ------- 2 1.0 3.1 66 79
r 0.65784 0 2 tcp 1040 ------- 1 0.0 3.0 11 87
+ 0.65784 2 3 tcp 1040 ------- 1 0.0 3.0 11 87
r 0.658 1 2 cbr 1000 ------- 2 1.0 3.1 68 86
+ 0.658 2 3 cbr 1000 ------- 2 1.0 3.1 68 86
- 0.65848 2 3 cbr 1000 ------- 2 1.0 3.1 67 83
r 0.65992 0 2 tcp 1040 ------- 1 0.0 3.0 12 88
+ 0.65992 2 3 tcp 1040 ------- 1 0.0 3.0 12 88
+ 0.66 1 2 cbr 1000 ------- 2 1.0 3.1 70 92
- 0.66 1 2 cbr 1000 ------- 2 1.0 3.1 70 92
r 0.66016 2 3 tcp 1040 ------- 1 0.0 3.0 7 81
+ 0.66016 3 2 ack 40 ------- 1 3.0 0.0 7 93
- 0.66016 3 2 ack 40 ------- 1 3.0 0.0 7 93
r 0.662 0 2 tcp 1040 ------- 1 0.0 3.0 13 89
+ 0.662 2 3 tcp 1040 ------- 1 0.0 3.0 13 89
d 0.662 2 3 tcp 1040 ------- 1 0.0 3.0 13 89
- 0.66248 2 3 tcp 1040 ------- 1 0.0 3.0 10 85
r 0.66408 0 2 tcp 1040 ------- 1 0.0 3.0 14 90
+ 0.66408 2 3 tcp 1040 ------- 1 0.0 3.0 14 90
r 0.66432 2 3 tcp 1040 ------- 1 0.0 3.0 8 82
+ 0.66432 3 2 ack 40 ------- 1 3.0 0.0 8 94
- 0.66432 3 2 ack 40 ------- 1 3.0 0.0 8 94
r 0.666 1 2 cbr 1000 ------- 2 1.0 3.1 69 91
+ 0.666 2 3 cbr 1000 ------- 2 1.0 3.1 69 91
d 0.666 2 3 cbr 1000 ------- 2 1.0 3.1 69 91
- 0.66664 2 3 tcp 1040 ------- 1 0.0 3.0 11 87
+ 0.668 1 2 cbr 1000 ------- 2 1.0 3.1 71 95
- 0.668 1 2 cbr 1000 ------- 2 1.0 3.1 71 95
r 0.66848 2 3 tcp 1040 ------- 1 0.0 3.0 9 84
+ 0.66848 3 2 ack 40 ------- 1 3.0 0.0 9 96
- 0.66848 3 2 ack 40 ------- 1 3.0 0.0 9 96
r 0.67032 3 2 ack 40 ------- 1 3.0 0.0 7 93
+ 0.67032 2 0 ack 40 ------- 1 3.0 0.0 7 93
- 0.67032 2 0 ack 40 ------- 1 3.0 0.0 7 93
- 0.6708 2 3 cbr 1000 ------- 2 1.0 3.1 68 86
r 0.67248 2 3 cbr 1000 ------- 2 1.0 3.1 67 83
r 0.674 1 2 cbr 1000 ------- 2 1.0 3.1 70 92
+ 0.674 2 3 cbr 1000 ------- 2 1.0 3.1 70 92
r 0.67448 3 2 ack 40 ------- 1 3.0 0.0 8 94
+ 0.67448 2 0 ack 40 ------- 1 3.0 0.0 8 94
- 0.67448 2 0 ack 40 ------- 1 3.0 0.0 8 94
- 0.6748 2 3 tcp 1040 ------- 1 0.0 3.0 12 88
+ 0.676 1 2 cbr 1000 ------- 2 1.0 3.1 72 97
- 0.676 1 2 cbr 1000 ------- 2 1.0 3.1 72 97
r 0.67664 2 3 tcp 1040 ------- 1 0.0 3.0 10 85
+ 0.67664 3 2 ack 40 ------- 1 3.0 0.0 10 98
- 0.67664 3 2 ack 40 ------- 1 3.0 0.0 10 98
r 0.67864 3 2 ack 40 ------- 1 3.0 0.0 9 96
+ 0.67864 2 0 ack 40 ------- 1 3.0 0.0 9 96
- 0.67864 2 0 ack 40 ------- 1 3.0 0.0 9 96
- 0.67896 2 3 tcp 1040 ------- 1 0.0 3.0 14 90
r 0.6804 2 0 ack 40 ------- 1 3.0 0.0 7 93
+ 0.6804 0 2 tcp 1040 ------- 1 0.0 3.0 15 99
- 0.6804 0 2 tcp 1040 ------- 1 0.0 3.0 15 99
+ 0.6804 0 2 tcp 1040 ------- 1 0.0 3.0 16 100
r 0.6808 2 3 tcp 1040 ------- 1 0.0 3.0 11 87
+ 0.6808 3 2 ack 40 ------- 1 3.0 0.0 11 101
- 0.6808 3 2 ack 40 ------- 1 3.0 0.0 11 101
r 0.682 1 2 cbr 1000 ------- 2 1.0 3.1 71 95
+ 0.682 2 3 cbr 1000 ------- 2 1.0 3.1 71 95
- 0.68248 0 2 tcp 1040 ------- 1 0.0 3.0 16 100
- 0.68312 2 3 cbr 1000 ------- 2 1.0 3.1 70 92
+ 0.684 1 2 cbr 1000 ------- 2 1.0 3.1 73 102
- 0.684 1 2 cbr 1000 ------- 2 1.0 3.1 73 102
r 0.68456 2 0 ack 40 ------- 1 3.0 0.0 8 94
+ 0.68456 0 2 tcp 1040 ------- 1 0.0 3.0 17 103
- 0.68456 0 2 tcp 1040 ------- 1 0.0 3.0 17 103
+ 0.68456 0 2 tcp 1040 ------- 1 0.0 3.0 18 104
r 0.6848 2 3 cbr 1000 ------- 2 1.0 3.1 68 86
- 0.68664 0 2 tcp 1040 ------- 1 0.0 3.0 18 104
r 0.6868 3 2 ack 40 ------- 1 3.0 0.0 10 98
+ 0.6868 2 0 ack 40 ------- 1 3.0 0.0 10 98
- 0.6868 2 0 ack 40 ------- 1 3.0 0.0 10 98
- 0.68712 2 3 cbr 1000 ------- 2 1.0 3.1 71 95
r 0.68872 2 0 ack 40 ------- 1 3.0 0.0 9 96
+ 0.68872 0 2 tcp 1040 ------- 1 0.0 3.0 19 105
- 0.68872 0 2 tcp 1040 ------- 1 0.0 3.0 19 105
+ 0.68872 0 2 tcp 1040 ------- 1 0.0 3.0 20 106
r 0.68896 2 3 tcp 1040 ------- 1 0.0 3.0 12 88
+ 0.68896 3 2 ack 40 ------- 1 3.0 0.0 12 107
- 0.68896 3 2 ack 40 ------- 1 3.0 0.0 12 107
r 0.69 1 2 cbr 1000 ------- 2 1.0 3.1 72 97
+ 0.69 2 3 cbr 1000 ------- 2 1.0 3.1 72 97
- 0.6908 0 2 tcp 1040 ------- 1 0.0 3.0 20 106
r 0.69096 3 2 ack 40 ------- 1 3.0 0.0 11 101
+ 0.69096 2 0 ack 40 ------- 1 3.0 0.0 11 101
- 0.69096 2 0 ack 40 ------- 1 3.0 0.0 11 101
- 0.69112 2 3 cbr 1000 ------- 2 1.0 3.1 72 97
+ 0.692 1 2 cbr 1000 ------- 2 1.0 3.1 74 108
- 0.692 1 2 cbr 1000 ------- 2 1.0 3.1 74 108
r 0.69248 0 2 tcp 1040 ------- 1 0.0 3.0 15 99
+ 0.69248 2 3 tcp 1040 ------- 1 0.0 3.0 15 99
r 0.69312 2 3 tcp 1040 ------- 1 0.0 3.0 14 90
+ 0.69312 3 2 ack 40 ------- 1 3.0 0.0 12 109
- 0.69312 3 2 ack 40 ------- 1 3.0 0.0 12 109
r 0.69456 0 2 tcp 1040 ------- 1 0.0 3.0 16 100
+ 0.69456 2 3 tcp 1040 ------- 1 0.0 3.0 16 100
- 0.69512 2 3 tcp 1040 ------- 1 0.0 3.0 15 99
r 0.69664 0 2 tcp 1040 ------- 1 0.0 3.0 17 103
+ 0.69664 2 3 tcp 1040 ------- 1 0.0 3.0 17 103
r 0.69688 2 0 ack 40 ------- 1 3.0 0.0 10 98
+ 0.69688 0 2 tcp 1040 ------- 1 0.0 3.0 21 110
- 0.69688 0 2 tcp 1040 ------- 1 0.0 3.0 21 110
+ 0.69688 0 2 tcp 1040 ------- 1 0.0 3.0 22 111
r 0.69712 2 3 cbr 1000 ------- 2 1.0 3.1 70 92
r 0.698 1 2 cbr 1000 ------- 2 1.0 3.1 73 102
+ 0.698 2 3 cbr 1000 ------- 2 1.0 3.1 73 102
r 0.69872 0 2 tcp 1040 ------- 1 0.0 3.0 18 104
+ 0.69872 2 3 tcp 1040 ------- 1 0.0 3.0 18 104
- 0.69896 0 2 tcp 1040 ------- 1 0.0 3.0 22 111
r 0.69912 3 2 ack 40 ------- 1 3.0 0.0 12 107
+ 0.69912 2 0 ack 40 ------- 1 3.0 0.0 12 107
- 0.69912 2 0 ack 40 ------- 1 3.0 0.0 12 107
- 0.69928 2 3 tcp 1040 ------- 1 0.0 3.0 16 100
+ 0.7 1 2 cbr 1000 ------- 2 1.0 3.1 75 112
- 0.7 1 2 cbr 1000 ------- 2 1.0 3.1 75 112
r 0.7008 0 2 tcp 1040 ------- 1 0.0 3.0 19 105
+ 0.7008 2 3 tcp 1040 ------- 1 0.0 3.0 19 105
r 0.70104 2 0 ack 40 ------- 1 3.0 0.0 11 101
+ 0.70104 0 2 tcp 1040 ------- 1 0.0 3.0 23 113
- 0.70104 0 2 tcp 1040 ------- 1 0.0 3.0 23 113
+ 0.70104 0 2 tcp 1040 ------- 1 0.0 3.0 24 114
r 0.70112 2 3 cbr 1000 ------- 2 1.0 3.1 71 95
r 0.70288 0 2 tcp 1040 ------- 1 0.0 3.0 20 106
+ 0.70288 2 3 tcp 1040 ------- 1 0.0 3.0 20 106
d 0.70288 2 3 tcp 1040 ------- 1 0.0 3.0 20 106
- 0.70312 0 2 tcp 1040 ------- 1 0.0 3.0 24 114
r 0.70328 3 2 ack 40 ------- 1 3.0 0.0 12 109
+ 0.70328 2 0 ack 40 ------- 1 3.0 0.0 12 109
- 0.70328 2 0 ack 40 ------- 1 3.0 0.0 12 109
- 0.70344 2 3 tcp 1040 ------- 1 0.0 3.0 17 103
r 0.70512 2 3 cbr 1000 ------- 2 1.0 3.1 72 97
r 0.706 1 2 cbr 1000 ------- 2 1.0 3.1 74 108
+ 0.706 2 3 cbr 1000 ------- 2 1.0 3.1 74 108
- 0.7076 2 3 cbr 1000 ------- 2 1.0 3.1 73 102
+ 0.708 1 2 cbr 1000 ------- 2 1.0 3.1 76 115
- 0.708 1 2 cbr 1000 ------- 2 1.0 3.1 76 115
r 0.70896 0 2 tcp 1040 ------- 1 0.0 3.0 21 110
+ 0.70896 2 3 tcp 1040 ------- 1 0.0 3.0 21 110
r 0.7092 2 0 ack 40 ------- 1 3.0 0.0 12 107
+ 0.7092 0 2 tcp 1040 ------- 1 0.0 3.0 25 116
- 0.7092 0 2 tcp 1040 ------- 1 0.0 3.0 25 116
+ 0.7092 0 2 tcp 1040 ------- 1 0.0 3.0 26 117
r 0.70928 2 3 tcp 1040 ------- 1 0.0 3.0 15 99
+ 0.70928 3 2 ack 40 ------- 1 3.0 0.0 12 118
- 0.70928 3 2 ack 40 ------- 1 3.0 0.0 12 118
r 0.71104 0 2 tcp 1040 ------- 1 0.0 3.0 22 111