V -t * -v 1.0a5 -a 0
A -t * -n 1 -p 0 -o 0x7fffffff -c 30 -a 1
A -t * -h 1 -m 1073741823 -s 0
c -t * -i 1 -n blue
n -t * -a 4 -s 4 -S UP -v circle -c black -i black
n -t * -a 0 -s 0 -S UP -v circle -c black -i black
n -t * -a 1 -s 1 -S UP -v circle -c black -i black
n -t * -a 2 -s 2 -S UP -v circle -c black -i black
n -t * -a 3 -s 3 -S UP -v circle -c black -i black
l -t * -s 0 -d 2 -S UP -r 2000000 -D 0.01 -c black -o right-down
l -t * -s 1 -d 2 -S UP -r 2000000 -D 0.01 -c black -o left-down
l -t * -s 2 -d 3 -S UP -r 2000000 -D 0.01 -c black -o left-down
l -t * -s 2 -d 4 -S UP -r 2000000 -D 0.01 -c black -o right-down
q -t * -s 3 -d 2 -a 0.5
q -t * -s 2 -d 3 -a 0.5
+ -t 0.5 -s 1 -d 2 -p tcp -e 40 -c 1 -i 0 -a 1 -x {1.0 3.0 0 ------- null}
- -t 0.5 -s 1 -d 2 -p tcp -e 40 -c 1 -i 0 -a 1 -x {1.0 3.0 0 ------- null}
h -t 0.5 -s 1 -d 2 -p tcp -e 40 -c 1 -i 0 -a 1 -x {1.0 3.0 -1 ------- null}
r -t 0.51016 -s 1 -d 2 -p tcp -e 40 -c 1 -i 0 -a 1 -x {1.0 3.0 0 ------- null}
+ -t 0.51016 -s 2 -d 3 -p tcp -e 40 -c 1 -i 0 -a 1 -x {1.0 3.0 0 ------- null}
- -t 0.51016 -s 2 -d 3 -p tcp -e 40 -c 1 -i 0 -a 1 -x {1.0 3.0 0 ------- null}
h -t 0.51016 -s 2 -d 3 -p tcp -e 40 -c 1 -i 0 -a 1 -x {1.0 3.0 -1 ------- null}
r -t 0.52032 -s 2 -d 3 -p tcp -e 40 -c 1 -i 0 -a 1 -x {1.0 3.0 0 ------- null}
+ -t 0.52032 -s 3 -d 2 -p ack -e 40 -c 1 -i 1 -a 1 -x {3.0 1.0 0 ------- null}
- -t 0.52032 -s 3 -d 2 -p ack -e 40 -c 1 -i 1 -a 1 -x {3.0 1.0 0 ------- null}
h -t 0.52032 -s 3 -d 2 -p ack -e 40 -c 1 -i 1 -a 1 -x {3.0 1.0 -1 ------- null}
r -t 0.53048 -s 3 -d 2 -p ack -e 40 -c 1 -i 1 -a 1 -x {3.0 1.0 0 ------- null}
+ -t 0.53048 -s 2 -d 1 -p ack -e 40 -c 1 -i 1 -a 1 -x {3.0 1.0 0 ------- null}
- -t 0.53048 -s 2 -d 1 -p ack -e 40 -c 1 -i 1 -a 1 -x {3.0 1.0 0 ------- null}
h -t 0.53048 -s 2 -d 1 -p ack -e 40 -c 1 -i 1 -a 1 -x {3.0 1.0 -1 ------- null}
r -t 0.54064 -s 2 -d 1 -p ack -e 40 -c 1 -i 1 -a 1 -x {3.0 1.0 0 ------- null}
+ -t 0.54064 -s 1 -d 2 -p tcp -e 1040 -c 1 -i 2 -a 1 -x {1.0 3.0 1 ------- null}
- -t 0.54064 -s 1 -d 2 -p tcp -e 1040 -c 1 -i 2 -a 1 -x {1.0 3.0 1 ------- null}
h -t 0.54064 -s 1 -d 2 -p tcp -e 1040 -c 1 -i 2 -a 1 -x {1.0 3.0 -1 ------- null}
+ -t 0.54064 -s 1 -d 2 -p tcp -e 1040 -c 1 -i 3 -a 1 -x {1.0 3.0 2 ------- null}
- -t 0.5448 -s 1 -d 2 -p tcp -e 1040 -c 1 -i 3 -a 1 -x {1.0 3.0 2 ------- null}
h -t 0.5448 -s 1 -d 2 -p tcp -e 1040 -c 1 -i 3 -a 1 -x {1.0 3.0 -1 ------- null}
r -t 0.5548 -s 1 -d 2 -p tcp -e 1040 -c 1 -i 2 -a 1 -x {1.0 3.0 1 ------- null}
+ -t 0.5548 -s 2 -d 3 -p tcp -e 1040 -c 1 -i 2 -a 1 -x {1.0 3.0 1 ------- null}
- -t 0.5548 -s 2 -d 3 -p tcp -e 1040 -c 1 -i 2 -a 1 -x {1.0 3.0 1 ------- null}
h -t 0.5548 -s 2 -d 3 -p tcp -e 1040 -c 1 -i 2 -a 1 -x {1.0 3.0 -1 ------- null}
r -t 0.55896 -s 1 -d 2 -p tcp -e 1040 -c 1 -i 3 -a 1 -x {1.0 3.0 2 ------- null}
+ -t 0.55896 -s 2 -d 3 -p tcp -e 1040 -c 1 -i 3 -a 1 -x {1.0 3.0 2 ------- null}
- -t 0.55896 -s 2 -d 3 -p tcp -e 1040 -c 1 -i 3 -a 1 -x {1.0 3.0 2 ------- null}
h -t 0.55896 -s 2 -d 3 -p tcp -e 1040 -c 1 -i 3 -a 1 -x {1.0 3.0 -1 ------- null}
r -t 0.56896 -s 2 -d 3 -p tcp -e 1040 -c 1 -i 2 -a 1 -x {1.0 3.0 1 ------- null}
+ -t 0.56896 -s 3 -d 2 -p ack -e 40 -c 1 -i 4 -a 1 -x {3.0 1.0 1 ------- null}
- -t 0.56896 -s 3 -d 2 -p ack -e 40 -c 1 -i 4 -a 1 -x {3.0 1.0 1 ------- null}
h -t 0.56896 -s 3 -d 2 -p ack -e 40 -c 1 -i 4 -a 1 -x {3.0 1.0 -1 ------- null}
r -t 0.57312 -s 2 -d 3 -p tcp -e 1040 -c 1 -i 3 -a 1 -x {1.0 3.0 2 ------- null}
+ -t 0.57312 -s 3 -d 2 -p ack -e 40 -c 1 -i 5 -a 1 -x {3.0 1.0 2 ------- null}
- -t 0.57312 -s 3 -d 2 -p ack -e 40 -c 1 -i 5 -a 1 -x {3.0 1.0 2 ------- null}
h -t 0.57312 -s 3 -d 2 -p ack -e 40 -c 1 -i 5 -a 1 -x {3.0 1.0 -1 ------- null}
r -t 0.57912 -s 3 -d 2 -p ack -e 40 -c 1 -i 4 -a 1 -x {3.0 1.0 1 ------- null}
+ -t 0.57912 -s 2 -d 1 -p ack -e 40 -c 1 -i 4 -a 1 -x {3.0 1.0 1 ------- null}
- -t 0.57912 -s 2 -d 1 -p ack -e 40 -c 1 -i 4 -a 1 -x {3.0 1.0 1 ------- null}
h -t 0.57912 -s 2 -d 1 -p ack -e 40 -c 1 -i 4 -a 1 -x {3.0 1.0 -1 ------- null}
r -t 0.58328 -s 3 -d 2 -p ack -e 40 -c 1 -i 5 -a 1 -x {3.0 1.0 2 ------- null}
+ -t 0.58328 -s 2 -d 1 -p ack -e 40 -c 1 -i 5 -a 1 -x {3.0 1.0 2 ------- null}
- -t 0.58328 -s 2 -d 1 -p ack -e 40 -c 1 -i 5 -a 1 -x {3.0 1.0 2 ------- null}
h -t 0.58328 -s 2 -d 1 -p ack -e 40 -c 1 -i 5 -a 1 -x {3.0 1.0 -1 ------- null}
r -t 0.58928 -s 2 -d 1 -p ack -e 40 -c 1 -i 4 -a 1 -x {3.0 1.0 1 ------- null}
+ -t 0.58928 -s 1 -d 2 -p tcp -e 1040 -c 1 -i 6 -a 1 -x {1.0 3.0 3 ------- null}
- -t 0.58928 -s 1 -d 2 -p tcp -e 1040 -c 1 -i 6 -a 1 -x {1.0 3.0 3 ------- null}
h -t 0.58928 -s 1 -d 2 -p tcp -e 1040 -c 1 -i 6 -a 1 -x {1.0 3.0 -1 ------- null}
+ -t 0.58928 -s 1 -d 2 -p tcp -e 1040 -c 1 -i 7 -a 1 -x {1.0 3.0 4 ------- null}
r -t 0.59344 -s 2 -d 1 -p ack -e 40 -c 1 -i 5 -a 1 -x {3.0 1.0 2 ------- null}
+ -t 0.59344 -s 1 -d 2 -p tcp -e 1040 -c 1 -i 8 -a 1 -x {1.0 3.0 5 ------- null}
+ -t 0.59344 -s 1 -d 2 -p tcp -e 1040 -c 1 -i 9 -a 1 -x {1.0 3.0 6 ------- null}
- -t 0.59344 -s 1 -d 2 -p tcp -e 1040 -c 1 -i 7 -a 1 -x {1.0 3.0 4 ------- null}
h -t 0.59344 -s 1 -d 2 -p tcp -e 1040 -c 1 -i 7 -a 1 -x {1.0 3.0 -1 ------- null}
- -t 0.5976 -s 1 -d 2 -p tcp -e 1040 -c 1 -i 8 -a 1 -x {1.0 3.0 5 ------- null}
h -t 0.5976 -s 1 -d 2 -p tcp -e 1040 -c 1 -i 8 -a 1 -x {1.0 3.0 -1 ------- null}
- -t 0.60176 -s 1 -d 2 -p tcp -e 1040 -c 1 -i 9 -a 1 -x {1.0 3.0 6 ------- null}
h -t 0.60176 -s 1 -d 2 -p tcp -e 1040 -c 1 -i 9 -a 1 -x {1.0 3.0 -1 ------- null}
r -t 0.60344 -s 1 -d 2 -p tcp -e 1040 -c 1 -i 6 -a 1 -x {1.0 3.0 3 ------- null}
+ -t 0.60344 -s 2 -d 3 -p tcp -e 1040 -c 1 -i 6 -a 1 -x {1.0 3.0 3 ------- null}
- -t 0.60344 -s 2 -d 3 -p tcp -e 1040 -c 1 -i 6 -a 1 -x {1.0 3.0 3 ------- null}
h -t 0.60344 -s 2 -d 3 -p tcp -e 1040 -c 1 -i 6 -a 1 -x {1.0 3.0 -1 ------- null}
r -t 0.6076 -s 1 -d 2 -p tcp -e 1040 -c 1 -i 7 -a 1 -x {1.0 3.0 4 ------- null}
+ -t 0.6076 -s 2 -d 3 -p tcp -e 1040 -c 1 -i 7 -a 1 -x {1.0 3.0 4 ------- null}
- -t 0.6076 -s 2 -d 3 -p tcp -e 1040 -c 1 -i 7 -a 1 -x {1.0 3.0 4 ------- null}
h -t 0.6076 -s 2 -d 3 -p tcp -e 1040 -c 1 -i 7 -a 1 -x {1.0 3.0 -1 ------- null}
r -t 0.61176 -s 1 -d 2 -p tcp -e 1040 -c 1 -i 8 -a 1 -x {1.0 3.0 5 ------- null}
+ -t 0.61176 -s 2 -d 3 -p tcp -e 1040 -c 1 -i 8 -a 1 -x {1.0 3.0 5 ------- null}
- -t 0.61176 -s 2 -d 3 -p tcp -e 1040 -c 1 -i 8 -a 1 -x {1.0 3.0 5 ------- null}
h -t 0.61176 -s 2 -d 3 -p tcp -e 1040 -c 1 -i 8 -a 1 -x {1.0 3.0 -1 ------- null}
r -t 0.61592 -s 1 -d 2 -p tcp -e 1040 -c 1 -i 9 -a 1 -x {1.0 3.0 6 ------- null}
+ -t 0.61592 -s 2 -d 3 -p tcp -e 1040 -c 1 -i 9 -a 1 -x {1.0 3.0 6 ------- null}
- -t 0.61592 -s 2 -d 3 -p tcp -e 1040 -c 1 -i 9 -a 1 -x {1.0 3.0 6 ------- null}
h -t 0.61592 -s 2 -d 3 -p tcp -e 1040 -c 1 -i 9 -a 1 -x {1.0 3.0 -1 ------- null}
r -t 0.617599999999999 -s 2 -d 3 -p tcp -e 1040 -c 1 -i 6 -a 1 -x {1.0 3.0 3 ------- null}
+ -t 0.617599999999999 -s 3 -d 2 -p ack -e 40 -c 1 -i 10 -a 1 -x {3.0 1.0 3 ------- null}
- -t 0.617599999999999 -s 3 -d 2 -p ack -e 40 -c 1 -i 10 -a 1 -x {3.0 1.0 3 ------- null}
h -t 0.617599999999999 -s 3 -d 2 -p ack -e 40 -c 1 -i 10 -a 1 -x {3.0 1.0 -1 ------- null}
r -t 0.62176 -s 2 -d 3 -p tcp -e 1040 -c 1 -i 7 -a 1 -x {1.0 3.0 4 ------- null}
+ -t 0.62176 -s 3 -d 2 -p ack -e 40 -c 1 -i 11 -a 1 -x {3.0 1.0 4 ------- null}
- -t 0.62176 -s 3 -d 2 -p ack -e 40 -c 1 -i 11 -a 1 -x {3.0 1.0 4 ------- null}
h -t 0.62176 -s 3 -d 2 -p ack -e 40 -c 1 -i 11 -a 1 -x {3.0 1.0 -1 ------- null}
r -t 0.62592 -s 2 -d 3 -p tcp -e 1040 -c 1 -i 8 -a 1 -x {1.0 3.0 5 ------- null}
+ -t 0.62592 -s 3 -d 2 -p ack -e 40 -c 1 -i 12 -a 1 -x {3.0 1.0 5 ------- null}
- -t 0.62592 -s 3 -d 2 -p ack -e 40 -c 1 -i 12 -a 1 -x {3.0 1.0 5 ------- null}
h -t 0.62592 -s 3 -d 2 -p ack -e 40 -c 1 -i 12 -a 1 -x {3.0 1.0 -1 ------- null}
r -t 0.627759999999999 -s 3 -d 2 -p ack -e 40 -c 1 -i 10 -a 1 -x {3.0 1.0 3 ------- null}
+ -t 0.627759999999999 -s 2 -d 1 -p ack -e 40 -c 1 -i 10 -a 1 -x {3.0 1.0 3 ------- null}
- -t 0.627759999999999 -s 2 -d 1 -p ack -e 40 -c 1 -i 10 -a 1 -x {3.0 1.0 3 ------- null}
h -t 0.627759999999999 -s 2 -d 1 -p ack -e 40 -c 1 -i 10 -a 1 -x {3.0 1.0 -1 ------- null}
r -t 0.63008 -s 2 -d 3 -p tcp -e 1040 -c 1 -i 9 -a 1 -x {1.0 3.0 6 ------- null}
+ -t 0.63008 -s 3 -d 2 -p ack -e 40 -c 1 -i 13 -a 1 -x {3.0 1.0 6 ------- null}
- -t 0.63008 -s 3 -d 2 -p ack -e 40 -c 1 -i 13 -a 1 -x {3.0 1.0 6 ------- null}
h -t 0.63008 -s 3 -d 2 -p ack -e 40 -c 1 -i 13 -a 1 -x {3.0 1.0 -1 ------- null}
r -t 0.631919999999999 -s 3 -d 2 -p ack -e 40 -c 1 -i 11 -a 1 -x {3.0 1.0 4 ------- null}
+ -t 0.631919999999999 -s 2 -d 1 -p ack -e 40 -c 1 -i 11 -a 1 -x {3.0 1.0 4 ------- null}
- -t 0.631919999999999 -s 2 -d 1 -p ack -e 40 -c 1 -i 11 -a 1 -x {3.0 1.0 4 ------- null}
h -t 0.631919999999999 -s 2 -d 1 -p ack -e 40 -c 1 -i 11 -a 1 -x {3.0 1.0 -1 ------- null}
r -t 0.63608 -s 3 -d 2 -p ack -e 40 -c 1 -i 12 -a 1 -x {3.0 1.0 5 ------- null}
+ -t 0.63608 -s 2 -d 1 -p ack -e 40 -c 1 -i 12 -a 1 -x {3.0 1.0 5 ------- null}
- -t 0.63608 -s 2 -d 1 -p ack -e 40 -c 1 -i 12 -a 1 -x {3.0 1.0 5 ------- null}
h -t 0.63608 -s 2 -d 1 -p ack -e 40 -c 1 -i 12 -a 1 -x {3.0 1.0 -1 ------- null}
r -t 0.637919999999999 -s 2 -d 1 -p ack -e 40 -c 1 -i 10 -a 1 -x {3.0 1.0 3 ------- null}
+ -t 0.637919999999999 -s 1 -d 2 -p tcp -e 1040 -c 1 -i 14 -a 1 -x {1.0 3.0 7 ------- null}
- -t 0.637919999999999 -s 1 -d 2 -p tcp -e 1040 -c 1 -i 14 -a 1 -x {1.0 3.0 7 ------- null}
h -t 0.637919999999999 -s 1 -d 2 -p tcp -e 1040 -c 1 -i 14 -a 1 -x {1.0 3.0 -1 ------- null}
+ -t 0.637919999999999 -s 1 -d 2 -p tcp -e 1040 -c 1 -i 15 -a 1 -x {1.0 3.0 8 ------- null}
r -t 0.64024 -s 3 -d 2 -p ack -e 40 -c 1 -i 13 -a 1 -x {3.0 1.0 6 ------- null}
+ -t 0.64024 -s 2 -d 1 -p ack -e 40 -c 1 -i 13 -a 1 -x {3.0 1.0 6 ------- null}
- -t 0.64024 -s 2 -d 1 -p ack -e 40 -c 1 -i 13 -a 1 -x {3.0 1.0 6 ------- null}
h -t 0.64024 -s 2 -d 1 -p ack -e 40 -c 1 -i 13 -a 1 -x {3.0 1.0 -1 ------- null}
r -t 0.642079999999999 -s 2 -d 1 -p ack -e 40 -c 1 -i 11 -a 1 -x {3.0 1.0 4 ------- null}
+ -t 0.642079999999999 -s 1 -d 2 -p tcp -e 1040 -c 1 -i 16 -a 1 -x {1.0 3.0 9 ------- null}
+ -t 0.642079999999999 -s 1 -d 2 -p tcp -e 1040 -c 1 -i 17 -a 1 -x {1.0 3.0 10 ------- null}
- -t 0.642079999999999 -s 1 -d 2 -p tcp -e 1040 -c 1 -i 15 -a 1 -x {1.0 3.0 8 ------- null}
h -t 0.642079999999999 -s 1 -d 2 -p tcp -e 1040 -c 1 -i 15 -a 1 -x {1.0 3.0 -1 ------- null}
r -t 0.646239999999999 -s 2 -d 1 -p ack -e 40 -c 1 -i 12 -a 1 -x {3.0 1.0 5 ------- null}
+ -t 0.646239999999999 -s 1 -d 2 -p tcp -e 1040 -c 1 -i 18 -a 1 -x {1.0 3.0 11 ------- null}
+ -t 0.646239999999999 -s 1 -d 2 -p tcp -e 1040 -c 1 -i 19 -a 1 -x {1.0 3.0 12 ------- null}
- -t 0.646239999999999 -s 1 -d 2 -p tcp -e 1040 -c 1 -i 16 -a 1 -x {1.0 3.0 9 ------- null}
h -t 0.646239999999999 -s 1 -d 2 -p tcp -e 1040 -c 1 -i 16 -a 1 -x {1.0 3.0 -1 ------- null}
r -t 0.6504 -s 2 -d 1 -p ack -e 40 -c 1 -i 13 -a 1 -x {3.0 1.0 6 ------- null}
+ -t 0.6504 -s 1 -d 2 -p tcp -e 1040 -c 1 -i 20 -a 1 -x {1.0 3.0 13 ------- null}
+ -t 0.6504 -s 1 -d 2 -p tcp -e 1040 -c 1 -i 21 -a 1 -x {1.0 3.0 14 ------- null}
- -t 0.6504 -s 1 -d 2 -p tcp -e 1040 -c 1 -i 17 -a 1 -x {1.0 3.0 10 ------- null}
h -t 0.6504 -s 1 -d 2 -p tcp -e 1040 -c 1 -i 17 -a 1 -x {1.0 3.0 -1 ------- null}
r -t 0.652079999999999 -s 1 -d 2 -p tcp -e 1040 -c 1 -i 14 -a 1 -x {1.0 3.0 7 ------- null}
+ -t 0.652079999999999 -s 2 -d 3 -p tcp -e 1040 -c 1 -i 14 -a 1 -x {1.0 3.0 7 ------- null}
- -t 0.652079999999999 -s 2 -d 3 -p tcp -e 1040 -c 1 -i 14 -a 1 -x {1.0 3.0 7 ------- null}
h -t 0.652079999999999 -s 2 -d 3 -p tcp -e 1040 -c 1 -i 14 -a 1 -x {1.0 3.0 -1 ------- null}
- -t 0.65456 -s 1 -d 2 -p tcp -e 1040 -c 1 -i 18 -a 1 -x {1.0 3.0 11 ------- null}
h -t 0.65456 -s 1 -d 2 -p tcp -e 1040 -c 1 -i 18 -a 1 -x {1.0 3.0 -1 ------- null}
r -t 0.656239999999999 -s 1 -d 2 -p tcp -e 1040 -c 1 -i 15 -a 1 -x {1.0 3.0 8 ------- null}
+ -t 0.656239999999999 -s 2 -d 3 -p tcp -e 1040 -c 1 -i 15 -a 1 -x {1.0 3.0 8 ------- null}
- -t 0.656239999999999 -s 2 -d 3 -p tcp -e 1040 -c 1 -i 15 -a 1 -x {1.0 3.0 8 ------- null}
h -t 0.656239999999999 -s 2 -d 3 -p tcp -e 1040 -c 1 -i 15 -a 1 -x {1.0 3.0 -1 ------- null}
- -t 0.65872 -s 1 -d 2 -p tcp -e 1040 -c 1 -i 19 -a 1 -x {1.0 3.0 12 ------- null}
h -t 0.65872 -s 1 -d 2 -p tcp -e 1040 -c 1 -i 19 -a 1 -x {1.0 3.0 -1 ------- null}
r -t 0.660399999999999 -s 1 -d 2 -p tcp -e 1040 -c 1 -i 16 -a 1 -x {1.0 3.0 9 ------- null}
+ -t 0.660399999999999 -s 2 -d 3 -p tcp -e 1040 -c 1 -i 16 -a 1 -x {1.0 3.0 9 ------- null}
- -t 0.660399999999999 -s 2 -d 3 -p tcp -e 1040 -c 1 -i 16 -a 1 -x {1.0 3.0 9 ------- null}
h -t 0.660399999999999 -s 2 -d 3 -p tcp -e 1040 -c 1 -i 16 -a 1 -x {1.0 3.0 -1 ------- null}
- -t 0.66288 -s 1 -d 2 -p tcp -e 1040 -c 1 -i 20 -a 1 -x {1.0 3.0 13 ------- null}
h -t 0.66288 -s 1 -d 2 -p tcp -e 1040 -c 1 -i 20 -a 1 -x {1.0 3.0 -1 ------- null}
r -t 0.664559999999999 -s 1 -d 2 -p tcp -e 1040 -c 1 -i 17 -a 1 -x {1.0 3.0 10 ------- null}
+ -t 0.664559999999999 -s 2 -d 3 -p tcp -e 1040 -c 1 -i 17 -a 1 -x {1.0 3.0 10 ------- null}
- -t 0.664559999999999 -s 2 -d 3 -p tcp -e 1040 -c 1 -i 17 -a 1 -x {1.0 3.0 10 ------- null}
h -t 0.664559999999999 -s 2 -d 3 -p tcp -e 1040 -c 1 -i 17 -a 1 -x {1.0 3.0 -1 ------- null}
r -t 0.666239999999999 -s 2 -d 3 -p tcp -e 1040 -c 1 -i 14 -a 1 -x {1.0 3.0 7 ------- null}
+ -t 0.666239999999999 -s 3 -d 2 -p ack -e 40 -c 1 -i 22 -a 1 -x {3.0 1.0 7 ------- null}
- -t 0.666239999999999 -s 3 -d 2 -p ack -e 40 -c 1 -i 22 -a 1 -x {3.0 1.0 7 ------- null}
h -t 0.666239999999999 -s 3 -d 2 -p ack -e 40 -c 1 -i 22 -a 1 -x {3.0 1.0 -1 ------- null}
- -t 0.66704 -s 1 -d 2 -p tcp -e 1040 -c 1 -i 21 -a 1 -x {1.0 3.0 14 ------- null}
h -t 0.66704 -s 1 -d 2 -p tcp -e 1040 -c 1 -i 21 -a 1 -x {1.0 3.0 -1 ------- null}
r -t 0.66872 -s 1 -d 2 -p tcp -e 1040 -c 1 -i 18 -a 1 -x {1.0 3.0 11 ------- null}
+ -t 0.66872 -s 2 -d 3 -p tcp -e 1040 -c 1 -i 18 -a 1 -x {1.0 3.0 11 ------- null}
- -t 0.66872 -s 2 -d 3 -p tcp -e 1040 -c 1 -i 18 -a 1 -x {1.0 3.0 11 ------- null}
h -t 0.66872 -s 2 -d 3 -p tcp -e 1040 -c 1 -i 18 -a 1 -x {1.0 3.0 -1 ------- null}
r -t 0.670399999999999 -s 2 -d 3 -p tcp -e 1040 -c 1 -i 15 -a 1 -x {1.0 3.0 8 ------- null}
+ -t 0.670399999999999 -s 3 -d 2 -p ack -e 40 -c 1 -i 23 -a 1 -x {3.0 1.0 8 ------- null}
- -t 0.670399999999999 -s 3 -d 2 -p ack -e 40 -c 1 -i 23 -a 1 -x {3.0 1.0 8 ------- null}
h -t 0.670399999999999 -s 3 -d 2 -p ack -e 40 -c 1 -i 23 -a 1 -x {3.0 1.0 -1 ------- null}
r -t 0.67288 -s 1 -d 2 -p tcp -e 1040 -c 1 -i 19 -a 1 -x {1.0 3.0 12 ------- null}
+ -t 0.67288 -s 2 -d 3 -p tcp -e 1040 -c 1 -i 19 -a 1 -x {1.0 3.0 12 ------- null}
- -t 0.67288 -s 2 -d 3 -p tcp -e 1040 -c 1 -i 19 -a 1 -x {1.0 3.0 12 ------- null}
h -t 0.67288 -s 2 -d 3 -p tcp -e 1040 -c 1 -i 19 -a 1 -x {1.0 3.0 -1 ------- null}
r -t 0.674559999999999 -s 2 -d 3 -p tcp -e 1040 -c 1 -i 16 -a 1 -x {1.0 3.0 9 ------- null}
+ -t 0.674559999999999 -s 3 -d 2 -p ack -e 40 -c 1 -i 24 -a 1 -x {3.0 1.0 9 ------- null}
- -t 0.674559999999999 -s 3 -d 2 -p ack -e 40 -c 1 -i 24 -a 1 -x {3.0 1.0 9 ------- null}
h -t 0.674559999999999 -s 3 -d 2 -p ack -e 40 -c 1 -i 24 -a 1 -x {3.0 1.0 -1 ------- null}
r -t 0.676399999999999 -s 3 -d 2 -p ack -e 40 -c 1 -i 22 -a 1 -x {3.0 1.0 7 ------- null}
+ -t 0.676399999999999 -s 2 -d 1 -p ack -e 40 -c 1 -i 22 -a 1 -x {3.0 1.0 7 ------- null}
- -t 0.676399999999999 -s 2 -d 1 -p ack -e 40 -c 1 -i 22 -a 1 -x {3.0 1.0 7 ------- null}
h -t 0.676399999999999 -s 2 -d 1 -p ack -e 40 -c 1 -i 22 -a 1 -x {3.0 1.0 -1 ------- null}
r -t 0.67704 -s 1 -d 2 -p tcp -e 1040 -c 1 -i 20 -a 1 -x {1.0 3.0 13 ------- null}
+ -t 0.67704 -s 2 -d 3 -p tcp -e 1040 -c 1 -i 20 -a 1 -x {1.0 3.0 13 ------- null}
- -t 0.67704 -s 2 -d 3 -p tcp -e 1040 -c 1 -i 20 -a 1 -x {1.0 3.0 13 ------- null}
h -t 0.67704 -s 2 -d 3 -p tcp -e 1040 -c 1 -i 20 -a 1 -x {1.0 3.0 -1 ------- null}
r -t 0.678719999999999 -s 2 -d 3 -p tcp -e 1040 -c 1 -i 17 -a 1 -x {1.0 3.0 10 ------- null}
+ -t 0.678719999999999 -s 3 -d 2 -p ack -e 40 -c 1 -i 25 -a 1 -x {3.0 1.0 10 ------- null}
- -t 0.678719999999999 -s 3 -d 2 -p ack -e 40 -c 1 -i 25 -a 1 -x {3.0 1.0 10 ------- null}
h -t 0.678719999999999 -s 3 -d 2 -p ack -e 40 -c 1 -i 25 -a 1 -x {3.0 1.0 -1 ------- null}
r -t 0.680559999999999 -s 3 -d 2 -p ack -e 40 -c 1 -i 23 -a 1 -x {3.0 1.0 8 ------- null}
+ -t 0.680559999999999 -s 2 -d 1 -p ack -e 40 -c 1 -i 23 -a 1 -x {3.0 1.0 8 ------- null}
- -t 0.680559999999999 -s 2 -d 1 -p ack -e 40 -c 1 -i 23 -a 1 -x {3.0 1.0 8 ------- null}
h -t 0.680559999999999 -s 2 -d 1 -p ack -e 40 -c 1 -i 23 -a 1 -x {3.0 1.0 -1 ------- null}
r -t 0.6812 -s 1 -d 2 -p tcp -e 1040 -c 1 -i 21 -a 1 -x {1.0 3.0 14 ------- null}
+ -t 0.6812 -s 2 -d 3 -p tcp -e 1040 -c 1 -i 21 -a 1 -x {1.0 3.0 14 ------- null}
- -t 0.6812 -s 2 -d 3 -p tcp -e 1040 -c 1 -i 21 -a 1 -x {1.0 3.0 14 ------- null}
h -t 0.6812 -s 2 -d 3 -p tcp -e 1040 -c 1 -i 21 -a 1 -x {1.0 3.0 -1 ------- null}
r -t 0.682879999999999 -s 2 -d 3 -p tcp -e 1040 -c 1 -i 18 -a 1 -x {1.0 3.0 11 ------- null}
+ -t 0.682879999999999 -s 3 -d 2 -p ack -e 40 -c 1 -i 26 -a 1 -x {3.0 1.0 11 ------- null}
- -t 0.682879999999999 -s 3 -d 2 -p ack -e 40 -c 1 -i 26 -a 1 -x {3.0 1.0 11 ------- null}
h -t 0.682879999999999 -s 3 -d 2 -p ack -e 40 -c 1 -i 26 -a 1 -x {3.0 1.0 -1 ------- null}
r -t 0.684719999999999 -s 3 -d 2 -p ack -e 40 -c 1 -i 24 -a 1 -x {3.0 1.0 9 ------- null}
+ -t 0.684719999999999 -s 2 -d 1 -p ack -e 40 -c 1 -i 24 -a 1 -x {3.0 1.0 9 ------- null}
- -t 0.684719999999999 -s 2 -d 1 -p ack -e 40 -c 1 -i 24 -a 1 -x {3.0 1.0 9 ------- null}
h -t 0.684719999999999 -s 2 -d 1 -p ack -e 40 -c 1 -i 24 -a 1 -x {3.0 1.0 -1 ------- null}
r -t 0.686559999999999 -s 2 -d 1 -p ack -e 40 -c 1 -i 22 -a 1 -x {3.0 1.0 7 ------- null}
+ -t 0.686559999999999 -s 1 -d 2 -p tcp -e 1040 -c 1 -i 27 -a 1 -x {1.0 3.0 15 ------- null}
- -t 0.686559999999999 -s 1 -d 2 -p tcp -e 1040 -c 1 -i 27 -a 1 -x {1.0 3.0 15 ------- null}
h -t 0.686559999999999 -s 1 -d 2 -p tcp -e 1040 -c 1 -i 27 -a 1 -x {1.0 3.0 -1 ------- null}
+ -t 0.686559999999999 -s 1 -d 2 -p tcp -e 1040 -c 1 -i 28 -a 1 -x {1.0 3.0 16 ------- null}
r -t 0.68704 -s 2 -d 3 -p tcp -e 1040 -c 1 -i 19 -a 1 -x {1.0 3.0 12 ------- null}
+ -t 0.68704 -s 3 -d 2 -p ack -e 40 -c 1 -i 29 -a 1 -x {3.0 1.0 12 ------- null}
- -t 0.68704 -s 3 -d 2 -p ack -e 40 -c 1 -i 29 -a 1 -x {3.0 1.0 12 ------- null}
h -t 0.68704 -s 3 -d 2 -p ack -e 40 -c 1 -i 29 -a 1 -x {3.0 1.0 -1 ------- null}
r -t 0.688879999999999 -s 3 -d 2 -p ack -e 40 -c 1 -i 25 -a 1 -x {3.0 1.0 10 ------- null}
+ -t 0.688879999999999 -s 2 -d 1 -p ack -e 40 -c 1 -i 25 -a 1 -x {3.0 1.0 10 ------- null}
- -t 0.688879999999999 -s 2 -d 1 -p ack -e 40 -c 1 -i 25 -a 1 -x {3.0 1.0 10 ------- null}
h -t 0.688879999999999 -s 2 -d 1 -p ack -e 40 -c 1 -i 25 -a 1 -x {3.0 1.0 -1 ------- null}
r -t 0.690719999999999 -s 2 -d 1 -p ack -e 40 -c 1 -i 23 -a 1 -x {3.0 1.0 8 ------- null}
+ -t 0.690719999999999 -s 1 -d 2 -p tcp -e 1040 -c 1 -i 30 -a 1 -x {1.0 3.0 17 ------- null}
+ -t 0.690719999999999 -s 1 -d 2 -p tcp -e 1040 -c 1 -i 31 -a 1 -x {1.0 3.0 18 ------- null}
- -t 0.690719999999999 -s 1 -d 2 -p tcp -e 1040 -c 1 -i 28 -a 1 -x {1.0 3.0 16 ------- null}
h -t 0.690719999999999 -s 1 -d 2 -p tcp -e 1040 -c 1 -i 28 -a 1 -x {1.0 3.0 -1 ------- null}
r -t 0.6912 -s 2 -d 3 -p tcp -e 1040 -c 1 -i 20 -a 1 -x {1.0 3.0 13 ------- null}
+ -t 0.6912 -s 3 -d 2 -p ack -e 40 -c 1 -i 32 -a 1 -x {3.0 1.0 13 ------- null}
- -t 0.6912 -s 3 -d 2 -p ack -e 40 -c 1 -i 32 -a 1 -x {3.0 1.0 13 ------- null}
h -t 0.6912 -s 3 -d 2 -p ack -e 40 -c 1 -i 32 -a 1 -x {3.0 1.0 -1 ------- null}
r -t 0.693039999999999 -s 3 -d 2 -p ack -e 40 -c 1 -i 26 -a 1 -x {3.0 1.0 11 ------- null}
+ -t 0.693039999999999 -s 2 -d 1 -p ack -e 40 -c 1 -i 26 -a 1 -x {3.0 1.0 11 ------- null}
- -t 0.693039999999999 -s 2 -d 1 -p ack -e 40 -c 1 -i 26 -a 1 -x {3.0 1.0 11 ------- null}
h -t 0.693039999999999 -s 2 -d 1 -p ack -e 40 -c 1 -i 26 -a 1 -x {3.0 1.0 -1 ------- null}
r -t 0.694879999999999 -s 2 -d 1 -p ack -e 40 -c 1 -i 24 -a 1 -x {3.0 1.0 9 ------- null}
+ -t 0.694879999999999 -s 1 -d 2 -p tcp -e 1040 -c 1 -i 33 -a 1 -x {1.0 3.0 19 ------- null}
+ -t 0.694879999999999 -s 1 -d 2 -p tcp -e 1040 -c 1 -i 34 -a 1 -x {1.0 3.0 20 ------- null}
- -t 0.694879999999999 -s 1 -d 2 -p tcp -e 1040 -c 1 -i 30 -a 1 -x {1.0 3.0 17 ------- null}
h -t 0.694879999999999 -s 1 -d 2 -p tcp -e 1040 -c 1 -i 30 -a 1 -x {1.0 3.0 -1 ------- null}
r -t 0.69536 -s 2 -d 3 -p tcp -e 1040 -c 1 -i 21 -a 1 -x {1.0 3.0 14 ------- null}
+ -t 0.69536 -s 3 -d 2 -p ack -e 40 -c 1 -i 35 -a 1 -x {3.0 1.0 14 ------- null}
- -t 0.69536 -s 3 -d 2 -p ack -e 40 -c 1 -i 35 -a 1 -x {3.0 1.0 14 ------- null}
h -t 0.69536 -s 3 -d 2 -p ack -e 40 -c 1 -i 35 -a 1 -x {3.0 1.0 -1 ------- null}
r -t 0.697199999999999 -s 3 -d 2 -p ack -e 40 -c 1 -i 29 -a 1 -x {3.0 1.0 12 ------- null}
+ -t 0.697199999999999 -s 2 -d 1 -p ack -e 40 -c 1 -i 29 -a 1 -x {3.0 1.0 12 ------- null}
- -t 0.697199999999999 -s 2 -d 1 -p ack -e 40 -c 1 -i 29 -a 1 -x {3.0 1.0 12 ------- null}
h -t 0.697199999999999 -s 2 -d 1 -p ack -e 40 -c 1 -i 29 -a 1 -x {3.0 1.0 -1 ------- null}
r -t 0.699039999999999 -s 2 -d 1 -p ack -e 40 -c 1 -i 25 -a 1 -x {3.0 1.0 10 ------- null}
+ -t 0.699039999999999 -s 1 -d 2 -p tcp -e 1040 -c 1 -i 36 -a 1 -x {1.0 3.0 21 ------- null}
+ -t 0.699039999999999 -s 1 -d 2 -p tcp -e 1040 -c 1 -i 37 -a 1 -x {1.0 3.0 22 ------- null}
- -t 0.699039999999999 -s 1 -d 2 -p tcp -e 1040 -c 1 -i 31 -a 1 -x {1.0 3.0 18 ------- null}
h -t 0.699039999999999 -s 1 -d 2 -p tcp -e 1040 -c 1 -i 31 -a 1 -x {1.0 3.0 -1 ------- null}
r -t 0.700719999999999 -s 1 -d 2 -p tcp -e 1040 -c 1 -i 27 -a 1 -x {1.0 3.0 15 ------- null}
+ -t 0.700719999999999 -s 2 -d 3 -p tcp -e 1040 -c 1 -i 27 -a 1 -x {1.0 3.0 15 ------- null}
- -t 0.700719999999999 -s 2 -d 3 -p tcp -e 1040 -c 1 -i 27 -a 1 -x {1.0 3.0 15 ------- null}
h -t 0.700719999999999 -s 2 -d 3 -p tcp -e 1040 -c 1 -i 27 -a 1 -x {1.0 3.0 -1 ------- null}
r -t 0.70136 -s 3 -d 2 -p ack -e 40 -c 1 -i 32 -a 1 -x {3.0 1.0 13 ------- null}
+ -t 0.70136 -s 2 -d 1 -p ack -e 40 -c 1 -i 32 -a 1 -x {3.0 1.0 13 ------- null}
- -t 0.70136 -s 2 -d 1 -p ack -e 40 -c 1 -i 32 -a 1 -x {3.0 1.0 13 ------- null}
h -t 0.70136 -s 2 -d 1 -p ack -e 40 -c 1 -i 32 -a 1 -x {3.0 1.0 -1 ------- null}
r -t 0.703199999999999 -s 2 -d 1 -p ack -e 40 -c 1 -i 26 -a 1 -x {3.0 1.0 11 ------- null}
+ -t 0.703199999999999 -s 1 -d 2 -p tcp -e 1040 -c 1 -i 38 -a 1 -x {1.0 3.0 23 ------- null}
+ -t 0.703199999999999 -s 1 -d 2 -p tcp -e 1040 -c 1 -i 39 -a 1 -x {1.0 3.0 24 ------- null}
- -t 0.703199999999999 -s 1 -d 2 -p tcp -e 1040 -c 1 -i 33 -a 1 -x {1.0 3.0 19 ------- null}
h -t 0.703199999999999 -s 1 -d 2 -p tcp -e 1040 -c 1 -i 33 -a 1 -x {1.0 3.0 -1 ------- null}
r -t 0.704879999999999 -s 1 -d 2 -p tcp -e 1040 -c 1 -i 28 -a 1 -x {1.0 3.0 16 ------- null}
+ -t 0.704879999999999 -s 2 -d 3 -p tcp -e 1040 -c 1 -i 28 -a 1 -x {1.0 3.0 16 ------- null}
- -t 0.704879999999999 -s 2 -d 3 -p tcp -e 1040 -c 1 -i 28 -a 1 -x {1.0 3.0 16 ------- null}
h -t 0.704879999999999 -s 2 -d 3 -p tcp -e 1040 -c 1 -i 28 -a 1 -x {1.0 3.0 -1 ------- null}
r -t 0.70552 -s 3 -d 2 -p ack -e 40 -c 1 -i 35 -a 1 -x {3.0 1.0 14 ------- null}
+ -t 0.70552 -s 2 -d 1 -p ack -e 40 -c 1 -i 35 -a 1 -x {3.0 1.0 14 ------- null}
- -t 0.70552 -s 2 -d 1 -p ack -e 40 -c 1 -i 35 -a 1 -x {3.0 1.0 14 ------- null}
h -t 0.70552 -s 2 -d 1 -p ack -e 40 -c 1 -i 35 -a 1 -x {3.0 1.0 -1 ------- null}
r -t 0.707359999999999 -s 2 -d 1 -p ack -e 40 -c 1 -i 29 -a 1 -x {3.0 1.0 12 ------- null}
+ -t 0.707359999999999 -s 1 -d 2 -p tcp -e 1040 -c 1 -i 40 -a 1 -x {1.0 3.0 25 ------- null}
+ -t 0.707359999999999 -s 1 -d 2 -p tcp -e 1040 -c 1 -i 41 -a 1 -x {1.0 3.0 26 ------- null}
- -t 0.707359999999999 -s 1 -d 2 -p tcp -e 1040 -c 1 -i 34 -a 1 -x {1.0 3.0 20 ------- null}
h -t 0.707359999999999 -s 1 -d 2 -p tcp -e 1040 -c 1 -i 34 -a 1 -x {1.0 3.0 -1 ------- null}
r -t 0.709039999999999 -s 1 -d 2 -p tcp -e 1040 -c 1 -i 30 -a 1 -x {1.0 3.0 17 ------- null}
+ -t 0.709039999999999 -s 2 -d 3 -p tcp -e 1040 -c 1 -i 30 -a 1 -x {1.0 3.0 17 ------- null}
- -t 0.709039999999999 -s 2 -d 3 -p tcp -e 1040 -c 1 -i 30 -a 1 -x {1.0 3.0 17 ------- null}
h -t 0.709039999999999 -s 2 -d 3 -p tcp -e 1040 -c 1 -i 30 -a 1 -x {1.0 3.0 -1 ------- null}
r -t 0.711519999999999 -s 2 -d 1 -p ack -e 40 -c 1 -i 32 -a 1 -x {3.0 1.0 13 ------- null}
+ -t 0.711519999999999 -s 1 -d 2 -p tcp -e 1040 -c 1 -i 42 -a 1 -x {1.0 3.0 27 ------- null}
- -t 0.711519999999999 -s 1 -d 2 -p tcp -e 1040 -c 1 -i 36 -a 1 -x {1.0 3.0 21 ------- null}
h -t 0.711519999999999 -s 1 -d 2 -p tcp -e 1040 -c 1 -i 36 -a 1 -x {1.0 3.0 -1 ------- null}
r -t 0.713199999999999 -s 1 -d 2 -p tcp -e 1040 -c 1 -i 31 -a 1 -x {1.0 3.0 18 ------- null}
+ -t 0.713199999999999 -s 2 -d 3 -p tcp -e 1040 -c 1 -i 31 -a 1 -x {1.0 3.0 18 ------- null}
- -t 0.713199999999999 -s 2 -d 3 -p tcp -e 1040 -c 1 -i 31 -a 1 -x {1.0 3.0 18 ------- null}
h -t 0.713199999999999 -s 2 -d 3 -p tcp -e 1040 -c 1 -i 31 -a 1 -x {1.0 3.0 -1 ------- null}
r -t 0.714879999999999 -s 2 -d 3 -p tcp -e 1040 -c 1 -i 27 -a 1 -x {1.0 3.0 15 ------- null}
+ -t 0.714879999999999 -s 3 -d 2 -p ack -e 40 -c 1 -i 43 -a 1 -x {3.0 1.0 15 ------- null}
- -t 0.714879999999999 -s 3 -d 2 -p ack -e 40 -c 1 -i 43 -a 1 -x {3.0 1.0 15 ------- null}
h -t 0.714879999999999 -s 3 -d 2 -p ack -e 40 -c 1 -i 43 -a 1 -x {3.0 1.0 -1 ------- null}
r -t 0.71568 -s 2 -d 1 -p ack -e 40 -c 1 -i 35 -a 1 -x {3.0 1.0 14 ------- null}
- -t 0.71568 -s 1 -d 2 -p tcp -e 1040 -c 1 -i 37 -a 1 -x {1.0 3.0 22 ------- null}
h -t 0.71568 -s 1 -d 2 -p tcp -e 1040 -c 1 -i 37 -a 1 -x {1.0 3.0 -1 ------- null}
+ -t 0.716 -s 1 -d 2 -p tcp -e 1040 -c 1 -i 44 -a 1 -x {1.0 3.0 28 ------- null}
r -t 0.717359999999999 -s 1 -d 2 -p tcp -e 1040 -c 1 -i 33 -a 1 -x {1.0 3.0 19 ------- null}
+ -t 0.717359999999999 -s 2 -d 3 -p tcp -e 1040 -c 1 -i 33 -a 1 -x {1.0 3.0 19 ------- null}
- -t 0.717359999999999 -s 2 -d 3 -p tcp -e 1040 -c 1 -i 33 -a 1 -x {1.0 3.0 19 ------- null}
h -t 0.717359999999999 -s 2 -d 3 -p tcp -e 1040 -c 1 -i 33 -a 1 -x {1.0 3.0 -1 ------- null}
r -t 0.719039999999999 -s 2 -d 3 -p tcp -e 1040 -c 1 -i 28 -a 1 -x {1.0 3.0 16 ------- null}
+ -t 0.719039999999999 -s 3 -d 2 -p ack -e 40 -c 1 -i 45 -a 1 -x {3.0 1.0 16 ------- null}
- -t 0.719039999999999 -s 3 -d 2 -p ack -e 40 -c 1 -i 45 -a 1 -x {3.0 1.0 16 ------- null}
h -t 0.719039999999999 -s 3 -d 2 -p ack -e 40 -c 1 -i 45 -a 1 -x {3.0 1.0 -1 ------- null}
- -t 0.71984 -s 1 -d 2 -p tcp -e 1040 -c 1 -i 38 -a 1 -x {1.0 3.0 23 ------- null}
h -t 0.71984 -s 1 -d 2 -p tcp -e 1040 -c 1 -i 38 -a 1 -x {1.0 3.0 -1 ------- null}
r -t 0.721519999999999 -s 1 -d 2 -p tcp -e 1040 -c 1 -i 34 -a 1 -x {1.0 3.0 20 ------- null}
+ -t 0.721519999999999 -s 2 -d 3 -p tcp -e 1040 -c 1 -i 34 -a 1 -x {1.0 3.0 20 ------- null}
- -t 0.721519999999999 -s 2 -d 3 -p tcp -e 1040 -c 1 -i 34 -a 1 -x {1.0 3.0 20 ------- null}
h -t 0.721519999999999 -s 2 -d 3 -p tcp -e 1040 -c 1 -i 34 -a 1 -x {1.0 3.0 -1 ------- null}
r -t 0.723199999999999 -s 2 -d 3 -p tcp -e 1040 -c 1 -i 30 -a 1 -x {1.0 3.0 17 ------- null}
+ -t 0.723199999999999 -s 3 -d 2 -p ack -e 40 -c 1 -i 46 -a 1 -x {3.0 1.0 17 ------- null}
- -t 0.723199999999999 -s 3 -d 2 -p ack -e 40 -c 1 -i 46 -a 1 -x {3.0 1.0 17 ------- null}
h -t 0.723199999999999 -s 3 -d 2 -p ack -e 40 -c 1 -i 46 -a 1 -x {3.0 1.0 -1 ------- null}
- -t 0.724 -s 1 -d 2 -p tcp -e 1040 -c 1 -i 39 -a 1 -x {1.0 3.0 24 ------- null}
h -t 0.724 -s 1 -d 2 -p tcp -e 1040 -c 1 -i 39 -a 1 -x {1.0 3.0 -1 ------- null}
+ -t 0.724 -s 1 -d 2 -p tcp -e 1040 -c 1 -i 47 -a 1 -x {1.0 3.0 29 ------- null}
r -t 0.725039999999999 -s 3 -d 2 -p ack -e 40 -c 1 -i 43 -a 1 -x {3.0 1.0 15 ------- null}
+ -t 0.725039999999999 -s 2 -d 1 -p ack -e 40 -c 1 -i 43 -a 1 -x {3.0 1.0 15 ------- null}
- -t 0.725039999999999 -s 2 -d 1 -p ack -e 40 -c 1 -i 43 -a 1 -x {3.0 1.0 15 ------- null}
h -t 0.725039999999999 -s 2 -d 1 -p ack -e 40 -c 1 -i 43 -a 1 -x {3.0 1.0 -1 ------- null}
r -t 0.725679999999999 -s 1 -d 2 -p tcp -e 1040 -c 1 -i 36 -a 1 -x {1.0 3.0 21 ------- null}
+ -t 0.725679999999999 -s 2 -d 3 -p tcp -e 1040 -c 1 -i 36 -a 1 -x {1.0 3.0 21 ------- null}
- -t 0.725679999999999 -s 2 -d 3 -p tcp -e 1040 -c 1 -i 36 -a 1 -x {1.0 3.0 21 ------- null}
h -t 0.725679999999999 -s 2 -d 3 -p tcp -e 1040 -c 1 -i 36 -a 1 -x {1.0 3.0 -1 ------- null}
r -t 0.727359999999999 -s 2 -d 3 -p tcp -e 1040 -c 1 -i 31 -a 1 -x {1.0 3.0 18 ------- null}
+ -t 0.727359999999999 -s 3 -d 2 -p ack -e 40 -c 1 -i 48 -a 1 -x {3.0 1.0 18 ------- null}
- -t 0.727359999999999 -s 3 -d 2 -p ack -e 40 -c 1 -i 48 -a 1 -x {3.0 1.0 18 ------- null}
h -t 0.727359999999999 -s 3 -d 2 -p ack -e 40 -c 1 -i 48 -a 1 -x {3.0 1.0 -1 ------- null}
- -t 0.72816 -s 1 -d 2 -p tcp -e 1040 -c 1 -i 40 -a 1 -x {1.0 3.0 25 ------- null}
h -t 0.72816 -s 1 -d 2 -p tcp -e 1040 -c 1 -i 40 -a 1 -x {1.0 3.0 -1 ------- null}
r -t 0.729199999999999 -s 3 -d 2 -p ack -e 40 -c 1 -i 45 -a 1 -x {3.0 1.0 16 ------- null}
+ -t 0.729199999999999 -s 2 -d 1 -p ack -e 40 -c 1 -i 45 -a 1 -x {3.0 1.0 16 ------- null}
- -t 0.729199999999999 -s 2 -d 1 -p ack -e 40 -c 1 -i 45 -a 1 -x {3.0 1.0 16 ------- null}
h -t 0.729199999999999 -s 2 -d 1 -p ack -e 40 -c 1 -i 45 -a 1 -x {3.0 1.0 -1 ------- null}
r -t 0.729839999999999 -s 1 -d 2 -p tcp -e 1040 -c 1 -i 37 -a 1 -x {1.0 3.0 22 ------- null}
+ -t 0.729839999999999 -s 2 -d 3 -p tcp -e 1040 -c 1 -i 37 -a 1 -x {1.0 3.0 22 ------- null}
- -t 0.729839999999999 -s 2 -d 3 -p tcp -e 1040 -c 1 -i 37 -a 1 -x {1.0 3.0 22 ------- null}
h -t 0.729839999999999 -s 2 -d 3 -p tcp -e 1040 -c 1 -i 37 -a 1 -x {1.0 3.0 -1 ------- null}
r -t 0.731519999999999 -s 2 -d 3 -p tcp -e 1040 -c 1 -i 33 -a 1 -x {1.0 3.0 19 ------- null}
+ -t 0.731519999999999 -s 3 -d 2 -p ack -e 40 -c 1 -i 49 -a 1 -x {3.0 1.0 19 ------- null}
- -t 0.731519999999999 -s 3 -d 2 -p ack -e 40 -c 1 -i 49 -a 1 -x {3.0 1.0 19 ------- null}
h -t 0.731519999999999 -s 3 -d 2 -p ack -e 40 -c 1 -i 49 -a 1 -x {3.0 1.0 -1 ------- null}
+ -t 0.732 -s 1 -d 2 -p tcp -e 1040 -c 1 -i 50 -a 1 -x {1.0 3.0 30 ------- null}